[Molden Format]
[Title]
 Molden file created by orca_2mkl for BaseName=/beegfs/scratch/ispackman/PFAS_EPR_calcs/benchmark/JChemEd_CF3_radical/CF3_opt_IN-PROGRESS/CF3_opt

[Atoms] AU
C    1   6         -0.0109311024         0.0069065025         0.6088355622 
F    2   9          0.1996694726        -2.3589629075        -0.1223030139 
F    3   9         -2.1513923392         1.0061991074        -0.1632156777 
F    4   9          1.9393064026         1.3597751306        -0.1272143205 
[GTO]
  1 0
s   6 1.0 
    13575.3496820000         0.5435905310
     2035.2333680000         1.0145543947
      463.2256235900         1.7315731970
      131.2001959800         2.6910376290
       42.8530158910         3.6044547126
       15.5841857660         3.7025556986
s   2 1.0 
        6.2067138508         1.8383540830
        2.5764896527         0.5447575605
s   1 1.0 
        0.5769633942         0.4718145038
s   1 1.0 
        0.2297283136         0.2364944676
s   1 1.0 
        0.0951644400         0.1221141848
p   4 1.0 
       34.6972322440         1.3596651507
        7.9582622826         1.4512589486
        2.3780826883         1.2709231419
        0.8143320818         0.8025721189
p   1 1.0 
        0.2888754725         0.3018758868
p   1 1.0 
        0.1005682367         0.0807265016
d   1 1.0 
        1.0970000000         3.3522135855
d   1 1.0 
        0.3180000000         0.3838994974
f   1 1.0 
        0.7610000000         3.0840084332
s   1 1.0 
        0.0484754014         0.0736293816
d   1 1.0 
        0.0909853364         0.0429704639

  2 0
s   6 1.0 
    35479.1004410000         1.0351654302
     5318.4728983000         1.9331170875
     1210.4810975000         3.3081679067
      342.8551814000         5.1904360265
      112.0194318100         7.1453715076
       40.7147402480         7.7853597648
s   2 1.0 
       16.0396781110         3.6156464853
        6.5038186740         1.1649992517
s   1 1.0 
        1.5440477509         0.9872011158
s   1 1.0 
        0.6122345286         0.4932856214
s   1 1.0 
        0.2402797970         0.2445952588
p   4 1.0 
       80.2339004830         4.2174077507
       18.5940107430         4.7174264054
        5.6867902653         4.0849101385
        1.9511006294         2.2998974220
p   1 1.0 
        0.6697021130         0.8635593174
p   1 1.0 
        0.2165130041         0.2105208284
d   1 1.0 
        3.1070000000        20.7284714039
d   1 1.0 
        0.8550000000         2.1672588463
f   1 1.0 
        1.9170000000        24.6547062912
s   1 1.0 
        0.0909184465         0.1180046435
p   1 1.0 
        0.0596132825         0.0419873904
d   1 1.0 
        0.1860838811         0.1503004932

  3 0
s   6 1.0 
    35479.1004410000         1.0351654302
     5318.4728983000         1.9331170875
     1210.4810975000         3.3081679067
      342.8551814000         5.1904360265
      112.0194318100         7.1453715076
       40.7147402480         7.7853597648
s   2 1.0 
       16.0396781110         3.6156464853
        6.5038186740         1.1649992517
s   1 1.0 
        1.5440477509         0.9872011158
s   1 1.0 
        0.6122345286         0.4932856214
s   1 1.0 
        0.2402797970         0.2445952588
p   4 1.0 
       80.2339004830         4.2174077507
       18.5940107430         4.7174264054
        5.6867902653         4.0849101385
        1.9511006294         2.2998974220
p   1 1.0 
        0.6697021130         0.8635593174
p   1 1.0 
        0.2165130041         0.2105208284
d   1 1.0 
        3.1070000000        20.7284714039
d   1 1.0 
        0.8550000000         2.1672588463
f   1 1.0 
        1.9170000000        24.6547062912
s   1 1.0 
        0.0909184465         0.1180046435
p   1 1.0 
        0.0596132825         0.0419873904
d   1 1.0 
        0.1860838811         0.1503004932

  4 0
s   6 1.0 
    35479.1004410000         1.0351654302
     5318.4728983000         1.9331170875
     1210.4810975000         3.3081679067
      342.8551814000         5.1904360265
      112.0194318100         7.1453715076
       40.7147402480         7.7853597648
s   2 1.0 
       16.0396781110         3.6156464853
        6.5038186740         1.1649992517
s   1 1.0 
        1.5440477509         0.9872011158
s   1 1.0 
        0.6122345286         0.4932856214
s   1 1.0 
        0.2402797970         0.2445952588
p   4 1.0 
       80.2339004830         4.2174077507
       18.5940107430         4.7174264054
        5.6867902653         4.0849101385
        1.9511006294         2.2998974220
p   1 1.0 
        0.6697021130         0.8635593174
p   1 1.0 
        0.2165130041         0.2105208284
d   1 1.0 
        3.1070000000        20.7284714039
d   1 1.0 
        0.8550000000         2.1672588463
f   1 1.0 
        1.9170000000        24.6547062912
s   1 1.0 
        0.0909184465         0.1180046435
p   1 1.0 
        0.0596132825         0.0419873904
d   1 1.0 
        0.1860838811         0.1503004932

[5D]
[7F]
[9G]
[MO]
 Sym=     1a
 Ene= -2.48535148754986E+01
 Spin= Alpha
 Occup= 1.000000
  1      -0.000040130539
  2       0.000195849541
  3       0.000428164739
  4      -0.002551087944
  5       0.005433394625
  6      -0.000052705379
  7      -0.000033690903
  8       0.000117346475
  9      -0.003197644244
 10      -0.002108688402
 11       0.000430435719
 12       0.001746822046
 13       0.001140539396
 14      -0.001288030238
 15       0.000257672757
 16       0.000277682027
 17       0.000182555635
 18      -0.000174391079
 19      -0.000504364415
 20       0.000299341969
 21       0.001050162592
 22       0.000676483230
 23      -0.000636934219
 24      -0.001842286631
 25      -0.000210354319
 26       0.000265087929
 27       0.000179638312
 28       0.000169381325
 29       0.000504004628
 30      -0.000079472843
 31       0.000326479987
 32      -0.001277845099
 33      -0.000158648085
 34      -0.000678122623
 35      -0.000439314914
 36       0.000336759819
 37       0.000968694270
 38       0.016154265551
 39       0.024595943758
 40       0.001390863414
 41      -0.001296730001
 42      -0.000278982628
 43      -0.000011923708
 44       0.000068516261
 45       0.000026908857
 46      -0.000028220626
 47      -0.000322068269
 48      -0.000098509383
 49       0.000112807124
 50      -0.000275592773
 51      -0.000051387950
 52       0.000015435030
 53       0.000025738333
 54       0.000011805631
 55      -0.000005257096
 56      -0.000034451865
 57      -0.000030382151
 58      -0.000095377266
 59      -0.000041970344
 60       0.000044986566
 61       0.000080901918
 62       0.000003942985
 63      -0.000010793655
 64      -0.000010393464
 65      -0.000000820926
 66      -0.000020499111
 67       0.000010183341
 68      -0.000014547574
 69      -0.000498891737
 70       0.000008116888
 71      -0.000385943093
 72      -0.000020302587
 73      -0.000103806270
 74       0.000011053500
 75       0.000025937013
 76      -0.000056320942
 77       0.000123330507
 78       0.029019524063
 79       0.044192656110
 80       0.002411010077
 81      -0.001972612124
 82       0.000001977390
 83       0.000098317417
 84      -0.000051997905
 85       0.000041266218
 86      -0.000398001131
 87       0.000124856501
 88      -0.000130943632
 89      -0.000214627475
 90       0.000194051090
 91      -0.000063076659
 92       0.000015068856
 93       0.000023066343
 94       0.000017772965
 95      -0.000014760308
 96      -0.000033017828
 97      -0.000021907017
 98      -0.000083875687
 99      -0.000066502514
100       0.000003791817
101       0.000106278875
102       0.000005701302
103      -0.000012266008
104      -0.000007140642
105      -0.000013500343
106      -0.000014039794
107      -0.000000993861
108      -0.000021181677
109      -0.000548623394
110      -0.000380410501
111       0.000150882902
112      -0.000038329432
113      -0.000107669861
114       0.000028335263
115       0.000001787803
116       0.000119417750
117       0.000054914989
118      -0.424525125018
119      -0.646661078381
120      -0.033538781006
121       0.021834993069
122      -0.010006602261
123       0.001133296737
124       0.000786583554
125      -0.000400756626
126      -0.002445703561
127      -0.001696155901
128       0.000793408156
129       0.000485230832
130       0.000337909493
131       0.000139347356
132       0.000020805098
133       0.000097906507
134       0.000065872671
135      -0.000057939128
136      -0.000157128110
137      -0.000296726750
138      -0.000335751642
139      -0.000228474222
140       0.000246691786
141       0.000666435327
142      -0.000057584322
143       0.000039905073
144       0.000028040587
145       0.000028010076
146       0.000072787354
147      -0.000027816646
148       0.000108496859
149       0.001197175884
150      -0.000355602554
151      -0.000243204599
152       0.000357130401
153       0.000060704876
154      -0.000085719934
155      -0.000059083628
156      -0.000005354923
157      -0.000007348877
 Sym=     1a
 Ene= -2.48534717156371E+01
 Spin= Alpha
 Occup= 1.000000
  1      -0.000043023565
  2       0.000209917992
  3       0.000459786790
  4      -0.002736317777
  5       0.005827880980
  6       0.000049082168
  7      -0.000032415987
  8       0.000126638649
  9       0.003113214890
 10      -0.002026122827
 11       0.000521029035
 12      -0.001679328749
 13       0.001093754754
 14      -0.001413929608
 15       0.000267135205
 16      -0.000283842797
 17       0.000182390081
 18      -0.000382839738
 19       0.000343496370
 20       0.000286807871
 21      -0.001050714121
 22       0.000674214183
 23      -0.001398182444
 24       0.001254549924
 25      -0.000237466404
 26      -0.000241980663
 27       0.000162161409
 28       0.000392487697
 29      -0.000356941908
 30      -0.000089626118
 31       0.000338471757
 32      -0.001370334971
 33      -0.000148089350
 34       0.000675143026
 35      -0.000434640521
 36       0.000733677004
 37      -0.000657713877
 38       0.043203817001
 39       0.065797932247
 40       0.003542702567
 41      -0.002748978810
 42       0.000273570912
 43      -0.000009135084
 44       0.000159127492
 45       0.000053880432
 46       0.000096517006
 47      -0.000528320879
 48      -0.000156528917
 49      -0.000052191015
 50      -0.000290474472
 51      -0.000067839886
 52       0.000015359024
 53      -0.000025468541
 54       0.000015970176
 55      -0.000026584377
 56       0.000024338887
 57      -0.000013955563
 58       0.000093082367
 59      -0.000054987603
 60       0.000114889742
 61      -0.000042991545
 62       0.000008322345
 63       0.000010452571
 64      -0.000006347644
 65      -0.000003661950
 66       0.000017785606
 67       0.000001194441
 68      -0.000025628676
 69      -0.000637165888
 70       0.000062218450
 71      -0.000457561612
 72      -0.000043386732
 73      -0.000121929448
 74      -0.000010575300
 75       0.000018972725
 76      -0.000019517681
 77      -0.000120329643
 78      -0.422747408505
 79      -0.643953788181
 80      -0.033389991408
 81       0.021709301144
 82      -0.010015780864
 83      -0.001238321994
 84       0.000577226314
 85      -0.000418624002
 86       0.002656482750
 87      -0.001250578036
 88       0.000829090795
 89      -0.000551512628
 90       0.000273869619
 91       0.000126038634
 92       0.000018709474
 93      -0.000107127652
 94       0.000054416075
 95      -0.000109673266
 96       0.000122864043
 97      -0.000287446148
 98       0.000375103254
 99      -0.000191912083
100       0.000457446666
101      -0.000528814045
102      -0.000058893526
103      -0.000041869906
104       0.000017503345
105       0.000049818563
106      -0.000064309029
107      -0.000029067502
108       0.000105314963
109       0.001161439478
110       0.000357683311
111      -0.000171133617
112       0.000361166849
113       0.000056229505
114       0.000095273624
115      -0.000042047139
116       0.000010660186
117       0.000019884797
118      -0.027252501394
119      -0.041523461568
120      -0.002041371503
121       0.000948897076
122      -0.001286629036
123       0.000062544830
124       0.000036409026
125      -0.000014161925
126       0.000040946105
127      -0.000043085971
128      -0.000014998208
129       0.000225970653
130       0.000267331717
131      -0.000038334159
132       0.000016183940
133      -0.000014238668
134       0.000023950142
135      -0.000033946454
136       0.000005433936
137      -0.000056096822
138       0.000053127666
139      -0.000088385897
140       0.000074852583
141      -0.000009332504
142      -0.000001491743
143       0.000017730131
144      -0.000001882520
145      -0.000015578487
146       0.000018821283
147       0.000007387970
148      -0.000002594165
149      -0.000364349060
150       0.000285850863
151       0.000168206989
152       0.000015883591
153      -0.000094522011
154      -0.000033047684
155      -0.000009659357
156       0.000137505619
157      -0.000016749796
 Sym=     1a
 Ene= -2.48534393558923E+01
 Spin= Alpha
 Occup= 1.000000
  1       0.000051209691
  2      -0.000249890724
  3      -0.000548675514
  4       0.003264348469
  5      -0.006939288227
  6       0.000003440478
  7      -0.000055234064
  8      -0.000149548305
  9       0.000122366999
 10      -0.003364213143
 11      -0.000553281104
 12      -0.000078928350
 13       0.001833013685
 14       0.001646139651
 15      -0.000328612921
 16      -0.000008840387
 17       0.000288761976
 18      -0.000457987017
 19      -0.000106262958
 20      -0.000381000022
 21      -0.000045666796
 22       0.001089145146
 23      -0.001672425728
 24      -0.000388377835
 25       0.000269260166
 26      -0.000010178698
 27       0.000285835225
 28       0.000452690033
 29       0.000103876906
 30       0.000114587283
 31      -0.000413313988
 32       0.001631341127
 33       0.000201834671
 34       0.000028678734
 35      -0.000704744917
 36       0.000879083696
 37       0.000205371498
 38       0.423316736840
 39       0.644823143271
 40       0.033412669571
 41      -0.021647461261
 42       0.010157945852
 43      -0.000121631360
 44       0.001366177180
 45       0.000393466390
 46       0.000254392672
 47      -0.002902538115
 48      -0.000766435068
 49      -0.000052320237
 50       0.000671744142
 51      -0.000127394243
 52      -0.000025400103
 53      -0.000009654360
 54       0.000115400810
 55      -0.000163048607
 56      -0.000031091277
 57       0.000307898262
 58       0.000030495296
 59      -0.000396005989
 60       0.000689590525
 61       0.000127263706
 62       0.000056557141
 63      -0.000005224954
 64       0.000051803166
 65       0.000078171979
 66       0.000012952301
 67       0.000028884299
 68      -0.000104731665
 69      -0.001075487504
 70       0.000030375622
 71      -0.000329920449
 72      -0.000353255799
 73      -0.000033215129
 74       0.000010711682
 75      -0.000110747483
 76      -0.000001149868
 77       0.000007589950
 78       0.042036571470
 79       0.064045132670
 80       0.003191193614
 81      -0.001633841678
 82       0.001738443360
 83       0.000104063031
 84      -0.000054275954
 85       0.000028005484
 86      -0.000078008780
 87      -0.000019220690
 88      -0.000001813677
 89       0.000400014387
 90      -0.000099344060
 91       0.000045890106
 92      -0.000019919782
 93       0.000015855381
 94       0.000018693333
 95      -0.000015658026
 96      -0.000027787435
 97       0.000074851147
 98      -0.000056614915
 99      -0.000070198236
100       0.000027393113
101       0.000069433312
102       0.000004140879
103       0.000010689250
104      -0.000016902988
105      -0.000024138297
106       0.000001242202
107      -0.000006482774
108       0.000001511260
109       0.000398214165
110       0.000331134932
111      -0.000180037434
112      -0.000021376001
113       0.000108516821
114      -0.000036228739
115       0.000031101555
116       0.000065892584
117       0.000104003553
118       0.018980048342
119       0.028924749913
120       0.001363372999
121      -0.000423024924
122       0.001230718435
123      -0.000031532501
124      -0.000027819183
125       0.000003901424
126      -0.000063343279
127      -0.000101985348
128       0.000046205315
129      -0.000362903203
130      -0.000161748821
131       0.000049097811
132      -0.000020034389
133      -0.000012299904
134       0.000018563681
135      -0.000025282365
136       0.000011221928
137       0.000062407212
138       0.000044441500
139      -0.000069487276
140       0.000058354734
141      -0.000016101059
142       0.000000489228
143      -0.000007033802
144      -0.000016987907
145      -0.000019890376
146      -0.000005681200
147       0.000002422546
148       0.000010678176
149       0.000486696358
150      -0.000330889641
151      -0.000257212489
152      -0.000006947243
153       0.000117872108
154       0.000025567865
155       0.000032220629
156       0.000089727098
157      -0.000075723539
 Sym=     1a
 Ene= -1.05401614831514E+01
 Spin= Alpha
 Occup= 1.000000
  1       0.468046673581
  2       0.607762970710
  3       0.039619387065
  4      -0.056313977836
  5       0.020575610795
  6       0.000020651589
  7      -0.000012355553
  8      -0.002217669404
  9      -0.000048672603
 10       0.000031182473
 11       0.005184903008
 12       0.000015686957
 13      -0.000009205534
 14      -0.001701515005
 15      -0.000520862407
 16       0.000007636040
 17      -0.000005489002
 18       0.000000720980
 19       0.000000257869
 20       0.000929633949
 21      -0.000014368344
 22       0.000008703177
 23       0.000000139902
 24      -0.000000346820
 25       0.000574860107
 26      -0.000012915096
 27       0.000007988843
 28      -0.000011814299
 29       0.000010648024
 30       0.000299775788
 31      -0.001137210507
 32      -0.001545456927
 33      -0.001160799141
 34       0.000018726623
 35      -0.000011291485
 36       0.000001803529
 37       0.000001314875
 38      -0.000025846603
 39      -0.000164397615
 40       0.001254529363
 41      -0.003029164541
 42       0.007522442393
 43      -0.000033069141
 44       0.000368202306
 45       0.000150118784
 46       0.000108883028
 47      -0.001208290421
 48      -0.000526993669
 49      -0.000593536502
 50       0.006662571161
 51       0.002169693173
 52      -0.000028347689
 53      -0.000006563383
 54       0.000070794273
 55      -0.000098440497
 56      -0.000017736810
 57       0.000245079182
 58       0.000049108645
 59      -0.000535774106
 60       0.000735016949
 61       0.000132659298
 62       0.000098494843
 63      -0.000005519162
 64       0.000066990498
 65       0.000169429077
 66       0.000030825436
 67       0.000055756169
 68      -0.000203844556
 69      -0.001625546515
 70       0.000011653088
 71      -0.000106981979
 72      -0.000241059293
 73      -0.000993209455
 74      -0.000128916535
 75       0.001429096002
 76      -0.002332419444
 77      -0.000418205376
 78      -0.000025854568
 79      -0.000164441248
 80       0.001255163633
 81      -0.003031104846
 82       0.007522164279
 83       0.000332788672
 84      -0.000155219827
 85       0.000156496624
 86      -0.001092347169
 87       0.000509252023
 88      -0.000548104557
 89       0.006027009448
 90      -0.002812830476
 91       0.002284812583
 92      -0.000026173610
 93       0.000066767697
 94      -0.000031063392
 95       0.000063462100
 96      -0.000075741077
 97       0.000228825297
 98      -0.000505938013
 99       0.000235628719
100      -0.000474024466
101       0.000565455376
102       0.000101197163
103       0.000052714978
104      -0.000024717123
105      -0.000114695771
106       0.000136686049
107       0.000053560152
108      -0.000200692783
109      -0.001627688168
110      -0.000093595049
111       0.000043837277
112      -0.000243220003
113      -0.000949356206
114       0.001363844669
115      -0.000636042272
116       0.001505323668
117      -0.001797472389
118      -0.000025860544
119      -0.000164496306
120       0.001255418389
121      -0.003031790223
122       0.007525345224
123      -0.000303843744
124      -0.000210336783
125       0.000150834016
126       0.000997960892
127       0.000690449585
128      -0.000529556066
129      -0.005495206057
130      -0.003810073426
131       0.002183475664
132      -0.000028093595
133      -0.000058802602
134      -0.000040430049
135       0.000035073388
136       0.000093550089
137       0.000243354556
138       0.000444994347
139       0.000306762815
140      -0.000261994752
141      -0.000698793716
142       0.000098826933
143      -0.000054100954
144      -0.000038163629
145      -0.000061014717
146      -0.000161846529
147       0.000051795499
148      -0.000204499189
149      -0.001629253781
150       0.000088928898
151       0.000059563524
152      -0.000241930198
153      -0.000988572112
154      -0.001187349875
155      -0.000820833257
156       0.000828905201
157       0.002217386215
 Sym=     1a
 Ene= -1.47070175762113E+00
 Spin= Alpha
 Occup= 1.000000
  1       0.050755953483
  2       0.106232838103
  3      -0.179532942020
  4      -0.123650870239
  5       0.009978848896
  6      -0.000479148378
  7       0.000256259022
  8       0.047603985951
  9      -0.000231672847
 10       0.000145136691
 11       0.025409873631
 12       0.000072594935
 13      -0.000021396556
 14      -0.005254932106
 15       0.007281471005
 16      -0.000109185629
 17       0.000073943143
 18      -0.000005684823
 19      -0.000009295431
 20       0.005209664310
 21      -0.000093864931
 22       0.000050197876
 23      -0.000004515929
 24       0.000003155156
 25      -0.004245782272
 26       0.000095974748
 27      -0.000059744159
 28       0.000059975353
 29      -0.000056526908
 30      -0.001543880473
 31       0.005849021514
 32      -0.003907831175
 33      -0.001235267478
 34       0.000015755542
 35      -0.000013715357
 36       0.000003243647
 37       0.000005212692
 38       0.053513602522
 39       0.129991832727
 40      -0.182994494190
 41      -0.254456005071
 42      -0.087648884198
 43       0.004512228367
 44      -0.051015472578
 45      -0.012565135407
 46       0.003973007867
 47      -0.044995694194
 48      -0.010425316795
 49       0.000231806969
 50      -0.002771419027
 51       0.000309836751
 52       0.000605989167
 53       0.000091211896
 54      -0.000999747876
 55       0.001637786545
 56       0.000294339264
 57       0.004126252828
 58       0.000298574651
 59      -0.003416902797
 60       0.007452759306
 61       0.001324806377
 62       0.000556313157
 63      -0.000078140402
 64       0.000880213261
 65       0.000637919408
 66       0.000111084793
 67       0.000284338480
 68      -0.001049526377
 69       0.000045440013
 70      -0.000082389232
 71       0.000865863634
 72       0.000761065979
 73      -0.000817307388
 74      -0.000072553333
 75       0.000841476484
 76      -0.001463785337
 77      -0.000263908619
 78       0.053514300557
 79       0.129993468405
 80      -0.182997619335
 81      -0.254457597383
 82      -0.087639245482
 83      -0.046197820683
 84       0.021571079868
 85      -0.013451502089
 86      -0.040752552508
 87       0.019031436356
 88      -0.011203826593
 89      -0.002519170901
 90       0.001173133720
 91       0.000260748790
 92       0.000575477942
 93      -0.000951568683
 94       0.000444437340
 95      -0.001057038266
 96       0.001262243354
 97       0.004019065336
 98      -0.003335443672
 99       0.001558499142
100      -0.004818284729
101       0.005755963999
102       0.000592606943
103       0.000761323501
104      -0.000355302766
105      -0.000444936686
106       0.000532357387
107       0.000275643779
108      -0.001036392247
109       0.000055677773
110       0.000778226312
111      -0.000361907512
112       0.000776360396
113      -0.000792322126
114       0.000809925163
115      -0.000377506693
116       0.000943278509
117      -0.001129824620
118       0.053555135595
119       0.130092950798
120      -0.183137069098
121      -0.254666180181
122      -0.087729553066
123       0.042064248907
124       0.029221805228
125      -0.012684679596
126       0.037102774197
127       0.025783270408
128      -0.010530560679
129       0.002279708991
130       0.001595781595
131       0.000302282649
132       0.000603157807
133       0.000832557808
134       0.000572603907
135      -0.000582276024
136      -0.001557765766
137       0.004115784998
138       0.002843188984
139       0.001979088634
140      -0.002637915811
141      -0.007092401589
142       0.000560842246
143      -0.000722112226
144      -0.000499936135
145      -0.000223806951
146      -0.000614035931
147       0.000269325589
148      -0.001053100614
149       0.000021964475
150      -0.000715284563
151      -0.000490262587
152       0.000762555584
153      -0.000816057959
154      -0.000699107019
155      -0.000486868965
156       0.000518869167
157       0.001394099460
 Sym=     1a
 Ene= -1.38371041536337E+00
 Spin= Alpha
 Occup= 1.000000
  1       0.000011625268
  2       0.000024024932
  3      -0.000036853236
  4      -0.000049448431
  5       0.000012618480
  6       0.111569182839
  7       0.045827982254
  8       0.000779814890
  9       0.048027401585
 10       0.019753734245
 11       0.000347931994
 12      -0.012004221469
 13      -0.004909241166
 14      -0.000084959356
 15      -0.000105679926
 16      -0.008997917860
 17      -0.003534809008
 18       0.001887601220
 19       0.013446302954
 20      -0.000060753335
 21      -0.004877055179
 22      -0.001958312792
 23       0.000670650952
 24       0.004599731963
 25      -0.000013125204
 26      -0.000716144049
 27      -0.000329577316
 28      -0.000230459314
 29      -0.001815560338
 30      -0.000016858821
 31      -0.000019813793
 32      -0.000000847046
 33       0.000045337677
 34       0.003891697815
 35       0.001539412491
 36      -0.000674390445
 37      -0.004760530374
 38       0.025243073137
 39       0.061450719670
 40      -0.087206977985
 41      -0.122908357148
 42      -0.048092617906
 43       0.011460885651
 44      -0.014474406460
 45      -0.005771651926
 46       0.009740640110
 47      -0.014883569353
 48      -0.005424406361
 49       0.002099195492
 50      -0.000874357225
 51      -0.000380735005
 52       0.000122660831
 53       0.000146171020
 54      -0.000401271492
 55       0.000444396553
 56       0.000516421058
 57       0.001185996617
 58       0.000476200005
 59      -0.001853429098
 60       0.002471701522
 61       0.003045412944
 62       0.000232344917
 63      -0.000197477055
 64       0.000173156875
 65       0.000281954130
 66       0.000160034502
 67       0.000702580934
 68      -0.000235397811
 69      -0.002616243966
 70      -0.000265445557
 71       0.000429395317
 72       0.000315403553
 73      -0.000360347053
 74      -0.000872666177
 75       0.000310389766
 76      -0.000513155790
 77      -0.000443628086
 78       0.057137459956
 79       0.139092504146
 80      -0.197384210311
 81      -0.278224908525
 82      -0.108907764378
 83      -0.028075643716
 84       0.021712485682
 85      -0.013879704412
 86      -0.029212347017
 87       0.020760375389
 88      -0.013065785338
 89      -0.001511192550
 90       0.002410370022
 91      -0.000950971173
 92       0.000244627249
 93      -0.000842403813
 94       0.000491871523
 95      -0.000503033360
 96       0.001112865407
 97       0.002545219819
 98      -0.003980124127
 99       0.002155667649
100      -0.002746506258
101       0.006343830626
102       0.000551608458
103       0.000288963116
104      -0.000286579592
105      -0.000395880370
106       0.000622470900
107      -0.000223344223
108      -0.000998440855
109      -0.005972047933
110       0.000831033686
111      -0.000582092409
112       0.000734914746
113      -0.000757231348
114       0.000558460297
115      -0.000983455872
116       0.000646640964
117      -0.001172861113
118      -0.082329665629
119      -0.200419983939
120       0.284419760064
121       0.400890577619
122       0.156908420464
123      -0.039932745348
124      -0.030470981358
125       0.019247895504
126      -0.040874516586
127      -0.030655350247
128       0.018059667475
129      -0.002573496428
130      -0.002346562711
131       0.001314063508
132      -0.000388559141
133      -0.001111313152
134      -0.000792231832
135       0.000511626031
136       0.001639760022
137      -0.003832349198
138      -0.005115440123
139      -0.003621094145
140       0.002832272588
141       0.009234175917
142      -0.000773262871
143       0.000474611243
144       0.000377964352
145       0.000331836706
146       0.000960345367
147      -0.000462258432
148       0.001252252694
149       0.008581349893
150       0.001173463696
151       0.000869668687
152      -0.001038265650
153       0.001123045628
154       0.000933145366
155       0.000885672528
156      -0.000598411286
157      -0.001819340116
 Sym=     1a
 Ene= -1.38362589662771E+00
 Spin= Alpha
 Occup= 1.000000
  1       0.000001799482
  2       0.000003778683
  3      -0.000007209946
  4      -0.000000350934
  5       0.000008654322
  6      -0.045809066879
  7       0.111539647850
  8      -0.001055814251
  9      -0.019743852931
 10       0.048024266023
 11      -0.000459455383
 12       0.004902282168
 13      -0.011973526468
 14       0.000108485439
 15       0.000146776213
 16       0.003804576581
 17      -0.008875210419
 18       0.013484806811
 19      -0.001678735296
 20       0.000081878009
 21       0.002051008162
 22      -0.004838275478
 23       0.004623833137
 24      -0.000552098160
 25       0.000017692361
 26       0.000268605427
 27      -0.000740311389
 28      -0.001811207009
 29       0.000255118848
 30      -0.000016512955
 31       0.000016184940
 32      -0.000000173380
 33      -0.000062813147
 34      -0.001630666138
 35       0.003842315179
 36      -0.004769615244
 37       0.000586120135
 38       0.080527457247
 39       0.196032534915