[Molden Format]
[Title]
 Molden file created by orca_2mkl for BaseName=/beegfs/scratch/ispackman/PFAS_EPR_calcs/benchmark/JChemEd_CF3_radical/CH3_opt_IN-PROGRESS/CH3_opt

[Atoms] AU
C    1   6         -0.0003216543         0.0004226889        -0.0008118315 
H    2   1         -0.7957942410         1.8788027829        -0.0009539044 
H    3   1         -1.2294686625        -1.6276889322        -0.0009558406 
H    4   1          2.0241653735        -0.2503157766        -0.0009558305 
[GTO]
  1 0
s   6 1.0 
    13575.3496820000         0.5435905310
     2035.2333680000         1.0145543947
      463.2256235900         1.7315731970
      131.2001959800         2.6910376290
       42.8530158910         3.6044547126
       15.5841857660         3.7025556986
s   2 1.0 
        6.2067138508         1.8383540830
        2.5764896527         0.5447575605
s   1 1.0 
        0.5769633942         0.4718145038
s   1 1.0 
        0.2297283136         0.2364944676
s   1 1.0 
        0.0951644400         0.1221141848
p   4 1.0 
       34.6972322440         1.3596651507
        7.9582622826         1.4512589486
        2.3780826883         1.2709231419
        0.8143320818         0.8025721189
p   1 1.0 
        0.2888754725         0.3018758868
p   1 1.0 
        0.1005682367         0.0807265016
d   1 1.0 
        1.0970000000         3.3522135855
d   1 1.0 
        0.3180000000         0.3838994974
f   1 1.0 
        0.7610000000         3.0840084332
s   1 1.0 
        0.0484754014         0.0736293816
d   1 1.0 
        0.0909853364         0.0429704639

  2 0
s   3 1.0 
       34.0613410000         0.2556299169
        5.1235746000         0.4613599649
        1.1646626000         0.6811214941
s   1 1.0 
        0.3272304100         0.3083545312
s   1 1.0 
        0.1030724100         0.1296483265
p   1 1.0 
        0.8000000000         1.0784563492
p   1 1.0 
        0.0957741296         0.0759452044

  3 0
s   3 1.0 
       34.0613410000         0.2556299169
        5.1235746000         0.4613599649
        1.1646626000         0.6811214941
s   1 1.0 
        0.3272304100         0.3083545312
s   1 1.0 
        0.1030724100         0.1296483265
p   1 1.0 
        0.8000000000         1.0784563492
p   1 1.0 
        0.0957741296         0.0759452044

  4 0
s   3 1.0 
       34.0613410000         0.2556299169
        5.1235746000         0.4613599649
        1.1646626000         0.6811214941
s   1 1.0 
        0.3272304100         0.3083545312
s   1 1.0 
        0.1030724100         0.1296483265
p   1 1.0 
        0.8000000000         1.0784563492
p   1 1.0 
        0.0957741296         0.0759452044

[5D]
[7F]
[9G]
[MO]
 Sym=     1a
 Ene= -1.02853047474753E+01
 Spin= Alpha
 Occup= 1.000000
  1       0.467482920344
  2       0.608141999343
  3       0.036541797647
  4      -0.026811983763
  5       0.106602563306
  6      -0.000000425036
  7      -0.000000381261
  8      -0.000000105444
  9       0.000001701540
 10       0.000002269295
 11      -0.000000231923
 12       0.000013278476
 13       0.000002991712
 14      -0.000002629972
 15      -0.000382927171
 16      -0.000000000409
 17       0.000000000600
 18       0.000000038803
 19       0.000000030689
 20      -0.001435778079
 21      -0.000000000460
 22       0.000000001281
 23      -0.000000214731
 24      -0.000003075600
 25       0.000000169558
 26      -0.000000188775
 27      -0.000000502463
 28      -0.000000000689
 29      -0.000000000558
 30      -0.001202748582
 31       0.000465244889
 32      -0.005370274493
 33      -0.003557451056
 34      -0.000000002089
 35       0.000000005047
 36       0.000010279576
 37      -0.000005999318
 38      -0.000580402352
 39      -0.000568581252
 40      -0.031497791989
 41      -0.000646312265
 42       0.001526531259
 43      -0.000000115690
 44      -0.002766376170
 45       0.006548518626
 46      -0.000000524858
 47      -0.000579524146
 48      -0.000562628188
 49      -0.031479441613
 50      -0.000998372920
 51      -0.001321813974
 52      -0.000000116971
 53      -0.004279112292
 54      -0.005674853751
 55      -0.000000527959
 56      -0.000579587111
 57      -0.000569448584
 58      -0.031526741209
 59       0.001645328841
 60      -0.000203425733
 61      -0.000000117190
 62       0.007056353970
 63      -0.000873358116
 64      -0.000000530356
 Sym=     1a
 Ene= -8.02341638402457E-01
 Spin= Alpha
 Occup= 1.000000
  1       0.098196186193
  2       0.209884016060
  3      -0.333029454703
  4      -0.372342884799
  5      -0.102146321745
  6       0.000002611285
  7       0.000005868968
  8       0.000008929545
  9       0.000028785960
 10       0.000010561280
 11       0.000004989323
 12      -0.000031660639
 13      -0.000004061986
 14       0.000001624135
 15       0.003281557592
 16      -0.000000000111
 17       0.000000003193
 18       0.000008244492
 19      -0.000009090762
 20      -0.001062320398
 21       0.000000010345
 22       0.000000010719
 23      -0.000003666847
 24       0.000000609958
 25      -0.000000576132
 26      -0.000008181854
 27      -0.000001313175
 28       0.000000006797
 29      -0.000000012645
 30       0.004381971427
 31      -0.001702910263
 32      -0.006846447465
 33      -0.001064718387
 34      -0.000000003748
 35      -0.000000013007
 36       0.000044230289
 37       0.000046288242
 38      -0.089926606236
 39      -0.101529361505
 40      -0.008992660323
 41      -0.005522174970
 42       0.013023948913
 43      -0.000000556310
 44       0.000410527647
 45      -0.000966688738
 46       0.000000221094
 47      -0.089915433023
 48      -0.101521814629
 49      -0.009127076796
 50      -0.008526108948
 51      -0.011280567644
 52      -0.000000550600
 53       0.000673819616
 54       0.000809822931
 55       0.000000199716
 56      -0.089923531986
 57      -0.101539966964
 58      -0.009061020252
 59       0.014045186453
 60      -0.001748090004
 61      -0.000000578781
 62      -0.001060214647
 63       0.000095865066
 64       0.000000215827
 Sym=     1a
 Ene= -5.21346164878783E-01
 Spin= Alpha
 Occup= 1.000000
  1      -0.000001948457
  2      -0.000003189524
  3       0.000000442963
  4       0.000011487266
  5       0.000034959547
  6      -0.177218319354
  7       0.286467034047
  8       0.000000189227
  9      -0.124732694358
 10       0.201667929366
 11       0.000000156059
 12      -0.100100900840
 13       0.161523972381
 14       0.000000089905
 15      -0.000002856887
 16       0.000000952170
 17      -0.000001529458
 18      -0.011139160405
 19      -0.008411822042
 20      -0.000000399888
 21       0.000000669671
 22      -0.000001127092
 23       0.000197703243
 24       0.000110397253
 25       0.000000009045
 26      -0.000565921919
 27       0.000894392353
 28      -0.000000227409
 29      -0.000000173593
 30       0.000011750676
 31       0.000022393249
 32      -0.000027548405
 33       0.000008436215
 34       0.000001920689
 35      -0.000003053022
 36      -0.027323364282
 37      -0.020546713210
 38       0.170105086546
 39       0.253170849833
 40      -0.066071883146
 41       0.006783316691
 42      -0.019759664537
 43       0.000001824485
 44      -0.010322641862
 45       0.019893760220
 46      -0.000002149223
 47      -0.062245242021
 48      -0.092627122815
 49       0.023908782397
 50      -0.011722081464
 51      -0.000700161768
 52      -0.000000721746
 53      -0.003391152032
 54       0.012747406257
 55       0.000000825710
 56      -0.107857701249
 57      -0.160569405695
 58       0.042164423168
 59       0.014038861756
 60       0.005793004463
 61      -0.000001161536
 62      -0.013027856076
 63       0.010320476660
 64       0.000001387757
 Sym=     1a
 Ene= -5.21317086648194E-01
 Spin= Alpha
 Occup= 1.000000
  1      -0.000002966157
  2      -0.000006848274
  3       0.000004402473
  4       0.000038771727
  5      -0.000057358471
  6       0.286455376924
  7       0.177235205868
  8       0.000000000441
  9       0.201665725372
 10       0.124778462524
 11       0.000000007222
 12       0.161454075039
 13       0.099943639012
 14       0.000000002553
 15       0.000004105757
 16      -0.000001530065
 17      -0.000000925551
 18       0.008411573054
 19      -0.011135928978
 20      -0.000003886738
 21      -0.000001127091
 22      -0.000000716211
 23      -0.000120997304
 24       0.000187233087
 25      -0.000000000297
 26       0.000902317125
 27       0.000552083226
 28       0.000000194298
 29      -0.000000232606
 30      -0.000013513433
 31       0.000003168142
 32      -0.000024969063
 33       0.000001909548
 34      -0.000003085905
 35      -0.000001876799
 36       0.020579538592
 37      -0.027319527274
 38       0.026326121157
 39       0.039182069974
 40      -0.010323009394
 41       0.009988101207
 42       0.000727287853
 43       0.000000287408
 44       0.008791609320
 45       0.007489745665
 46      -0.000000358022
 47      -0.160466278131
 48      -0.238891641940
 49       0.062345992191
 50      -0.009083764728
 51      -0.017785981392
 52      -0.000001802000
 53       0.015896579494
 54       0.014401258408
 55       0.000002102343
 56       0.134146751050
 57       0.199681666696
 58      -0.051935931655
 59      -0.015576164788
 60       0.007988661353
 61       0.000001454795
 62       0.018329324792
 63       0.004804849284
 64      -0.000001725643
 Sym=     1a
 Ene= -3.26590213113398E-01
 Spin= Alpha
 Occup= 1.000000
  1      -0.000006522784
  2      -0.000014421971
  3       0.000022401927
  4       0.000061618353
  5      -0.000092018564
  6       0.000000115707
  7      -0.000000232081
  8       0.429607468194
  9       0.000000356870
 10      -0.000000545580
 11       0.436285526118
 12      -0.000000443203
 13       0.000001248550
 14       0.241427821069
 15       0.000001493310
 16       0.000007033147
 17      -0.000002830771
 18       0.000000010196
 19       0.000000009119
 20      -0.000000906070
 21      -0.000013409333
 22      -0.000023263134
 23       0.000000147641
 24       0.000000105684
 25      -0.001255728347
 26      -0.000000030218
 27       0.000000035923
 28       0.000006828509
 29      -0.000001506908
 30      -0.000000495873
 31       0.000000153725
 32       0.000008411278
 33       0.000008670216
 34      -0.000005405138
 35       0.000038902074
 36      -0.000000301788
 37      -0.000000389862
 38      -0.000009965640
 39      -0.000018157412
 40       0.000026094183
 41      -0.000000722895
 42       0.000001779409
 43       0.019862600691
 44       0.000003411560
 45      -0.000007982976
 46       0.030002984566
 47      -0.000009933203
 48      -0.000018806907
 49       0.000030283154
 50      -0.000001227790
 51      -0.000001612342
 52       0.019857942517
 53       0.000005587210
 54       0.000007586342
 55       0.030078072131
 56      -0.000009968257
 57      -0.000018903109
 58       0.000029982249
 59       0.000002061115
 60      -0.000000327906
 61       0.019866633865
 62      -0.000009256830
 63       0.000001332716
 64       0.030068117576
 Sym=     1a
 Ene= 7.63973028769291E-02
 Spin= Alpha
 Occup= 0.000000
  1       0.033598735880
  2       0.076723173720
  3      -0.129468895773
  4      -0.392445008157
  5       5.302656298420
  6       0.000009088793
  7       0.000027990086
  8       0.000006317961
  9       0.000001396876
 10      -0.000031853734
 11       0.000027059065
 12      -0.000060900013
 13       0.000093314664
 14      -0.000199643716
 15      -0.000137714663
 16      -0.000000002409
 17       0.000000003125
 18       0.000005124151
 19      -0.000002085006
 20       0.042338214874
 21       0.000000022205
 22      -0.000000040536
 23      -0.000005862727
 24       0.000042023376
 25      -0.000001757258
 26      -0.000003300578
 27       0.000001878549
 28       0.000000006750
 29       0.000000005574
 30       0.013561077330
 31      -0.005251711339
 32       2.523424172152
 33      -0.398652887226
 34      -0.000000133385
 35       0.000000488152
 36      -0.000012056970
 37      -0.000775330299
 38      -0.008381377325
 39       0.188417672212
 40      -2.587484095377
 41       0.000036417459
 42      -0.000104206157
 43       0.000000869044
 44      -0.223548764742
 45       0.528713171866
 46      -0.000052887352
 47      -0.008382259613
 48       0.188300410672
 49      -2.585320774223
 50       0.000055832168
 51       0.000076453047
 52       0.000000855292
 53      -0.345967997829
 54      -0.458073419385
 55      -0.000053245974
 56      -0.008377175922
 57       0.188367562912
 58      -2.586613387716
 59      -0.000100905249
 60       0.000009111761
 61       0.000000863991
 62       0.569715196280
 63      -0.070024919272
 64      -0.000053408461
 Sym=     1a
 Ene= 1.61164446431342E-01
 Spin= Alpha
 Occup= 0.000000
  1       0.000000747970
  2       0.000001382058
  3       0.000005131718
  4      -0.000042204182
  5      -0.000360227368
  6      -0.040366664709
  7       0.154899369738
  8       0.000000130562
  9      -0.078043644003
 10       0.299551446803
 11       0.000000245700
 12       1.670291474645
 13      -6.405809454858
 14      -0.000004106215
 15      -0.000001693860
 16       0.000000346637
 17      -0.000001303713
 18      -0.003915400609
 19      -0.005427579840
 20      -0.000008439894
 21      -0.000002600554
 22       0.000009933787
 23       0.024001620005
 24       0.033319332389
 25      -0.000000000195
 26       0.000655701035
 27      -0.002527720228
 28       0.000000272154
 29       0.000000371736
 30       0.000002088763
 31       0.000006916351
 32      -0.000425854778
 33       0.000068964922
 34      -0.000016104830
 35       0.000064202356
 36       1.128092068792
 37       1.565549837682
 38       0.020375588410
 39      -0.216091908884
 40      11.877910351898
 41       0.006631479856
 42      -0.011716443765
 43       0.000001461922
 44       1.230757517685
 45      -3.175759638568
 46       0.000363068376
 47      -0.012752480746
 48       0.135514151702
 49      -7.445223470866
 50      -0.011648591471
 51      -0.001714346852
 52      -0.000000932821
 53      -0.830388463044
 54      -2.047448348176
 55      -0.000229801723
 56      -0.007608906145
 57       0.080582838209
 58      -4.431637066460
 59       0.006155543460
 60       0.009110287424
 61      -0.000000541832
 62       1.177588768484
 63      -0.827114971775
 64      -0.000137256176
 Sym=     1a
 Ene= 1.61168185631312E-01
 Spin= Alpha
 Occup= 0.000000
  1      -0.000000150885
  2      -0.000001523804
  3       0.000009568072
  4      -0.000008868997
  5      -0.000666584648
  6      -0.154891818219
  7      -0.040383272157
  8       0.000000011611
  9      -0.299535907429
 10      -0.078030042488
 11      -0.000000034812
 12       6.404809671467
 13       1.667700716371
 14      -0.000000114682
 15      -0.000000754858
 16       0.000001304529
 17       0.000000336914
 18      -0.005425135576
 19       0.003909325188
 20       0.000007929031
 21      -0.000009957550
 22      -0.000002590463
 23       0.033337152290
 24      -0.024027687223
 25      -0.000000000308
 26       0.002522786698
 27       0.000657697099
 28       0.000000373933
 29      -0.000000274739
 30       0.000007490765
 31      -0.000001989511
 32       0.000336545357
 33      -0.000058217589
 34      -0.000066357162
 35      -0.000017951670
 36       1.565577273067
 37      -1.127249957694
 38       0.002990594061
 39      -0.031670772869
 40       1.742829817597
 41      -0.008842930590
 42      -0.005868635727
 43       0.000000213052
 44       0.857298100767
 45      -0.179366893157
 46       0.000053444930
 47       0.016129321122
 48      -0.171269510106
 49       9.412222875955
 50       0.001178482062
 51       0.012417384747
 52       0.000001193448
 53       1.985965864196
 54       1.881689069653
 55       0.000289500228
 56      -0.019118906205
 57       0.202975413028
 58     -11.154877270615
 59       0.011996662629
 60      -0.005409680285
 61      -0.000001395232
 62       3.206140945295
 63      -0.126979229501
 64      -0.000344008482
 Sym=     1a
 Ene= 1.96051286977515E-01
 Spin= Alpha
 Occup= 0.000000
  1       0.018147039099
  2       0.030899397117
  3       0.167398634695
  4      -1.669405621648
  5      24.087054734148
  6      -0.000015469747
  7       0.000015909537
  8       0.000027323370
  9      -0.000072277986
 10      -0.000231153476
 11       0.000044516686
 12       0.001001538006
 13       0.003634077010
 14      -0.000576479153
 15      -0.007490530708
 16      -0.000000010482
 17      -0.000000000054
 18       0.000001672004
 19      -0.000016171382
 20      -0.051781500046
 21      -0.000000000610
 22       0.000000062211
 23       0.000015659756
 24       0.000005478372
 25      -0.000001381097
 26       0.000003835151
 27       0.000008479181
 28       0.000000006258
 29       0.000000003773
 30       0.011072586994
 31      -0.004284856791
 32      -2.299724594034
 33      -1.151885131630
 34      -0.000001172040
 35       0.000001045417
 36      -0.000300275850
 37       0.000593066780
 38       0.046664023968
 39       0.193915933357
 40      -7.114666994211
 41       0.003297928380
 42      -0.007837248806
 43       0.000003488273
 44      -0.937390918860
 45       2.208730049519
 46      -0.000175529832
 47       0.046548494631
 48       0.193272400081
 49      -7.107768314939
 50       0.005098049379
 51       0.006737769979
 52       0.000003499740
 53      -1.444286722077
 54      -1.913653337301
 55      -0.000177511620
 56       0.046640134863
 57       0.193743383123
 58      -7.110899669931
 59      -0.008424997520
 60       0.001020526307
 61       0.000003485659
 62       2.380093415876
 63      -0.296967646369
 64      -0.000176781427
 Sym=     1a
 Ene= 2.05837323074908E-01
 Spin= Alpha
 Occup= 0.000000
  1       0.000001117073
  2       0.000004055942
  3      -0.000018455154
  4      -0.000003007862
  5       0.000635758334
  6      -0.033600139388
  7       0.016813862386
  8      -0.000000012229
  9       0.227247414543
 10      -0.113733320094
 11      -0.000000111279
 12      -3.193282980258
 13       1.598554673634
 14       0.000001450729
 15      -0.000002517423
 16       0.000001369206
 17      -0.000000680141
 18      -0.013282496509
 19      -0.001252943603
 20       0.000005269592
 21      -0.000012314552
 22       0.000006134184
 23       0.023276050921
 24       0.002188036215
 25       0.000000010596
 26      -0.008696481253
 27       0.004351444803
 28      -0.000002683913
 29      -0.000000241066
 30       0.000000530598
 31       0.000007487142
 32      -0.000075949210
 33      -0.000006926219
 34       0.000324909027
 35      -0.000162836439
 36       0.550725102711
 37       0.052109457826
 38       0.043122600716
 39       0.250567090305
 40      -2.227709998437
 41       0.022620550616
 42      -0.017695425455
 43       0.000000746419
 44       0.914220872899
 45       1.029355400452
 46       0.000166586815
 47       0.010325260902
 48       0.059907055640
 49      -0.530378200204
 50       0.020451723528
 51      -0.007919052651
 52       0.000000172423
 53       1.418045194870
 54      -1.246851310238
 55       0.000038952860
 56      -0.053448241680
 57      -0.310471528642
 58       2.757546295905
 59       0.030006077605
 60      -0.010941629033
 61      -0.000000962199
 62      -0.804960655784
 63      -0.545020066475
 64      -0.000206051454
 Sym=     1a
 Ene= 2.05841695237255E-01
 Spin= Alpha
 Occup= 0.000000
  1      -0.000015386797
  2      -0.000018661545
  3      -0.000302280456
  4       0.002336770366
  5      -0.032818667302
  6       0.016816010108
  7       0.033633138839
  8      -0.000000036503
  9      -0.113648788460
 10      -0.227273490494
 11      -0.000000188429
 12       1.596894858124
 13       3.193434797468
 14       0.000002236278
 15       0.000010364145
 16      -0.000000692765
 17      -0.000001361617
 18       0.001260316986
 19      -0.013278014830
 20       0.000051141488
 21       0.000006172756
 22       0.000012298892
 23      -0.002235618306
 24       0.023349826340
 25       0.000000016141
 26       0.004349082971
 27       0.008699397740
 28       0.000000269883
 29      -0.000002687739
 30      -0.000019322423
 31       0.000009082795
 32       0.002123945198
 33       0.001874277345
 34      -0.000162202011
 35      -0.000325017908
 36      -0.051506945529
 37       0.549674733313
 38       0.036762554398
 39       0.213636536550
 40      -1.889666899283
 41      -0.006668699099
 42      -0.026085621720
 43       0.000000636074
 44      -1.535926633311
 45      -0.106334789813
 46       0.000142416455
 47      -0.055823232738
 48      -0.324219696191
 49       2.887928499668
 50      -0.016467547917
 51      -0.028287448026
 52      -0.000001006256
 53       0.739998296029
 54       0.401528818827
 55      -0.000214436665
 56       0.018898950781
 57       0.109822690923
 58      -0.967672746837
 59      -0.013416412864
 60      -0.018709340528
 61       0.000000321356
 62       0.032369408310
 63      -1.822194494002
 64       0.000072189830
 Sym=     1a
 Ene= 2.39672732298156E-01
 Spin= Alpha
 Occup= 0.000000
  1       0.000003005620
  2       0.000007033273
  3      -0.000009076876
  4      -0.000020432848
  5      -0.001407942409
  6      -0.000000112030
  7       0.000000124896
  8      -0.231337428288
  9       0.000000049434
 10       0.000000133619
 11      -0.244889220999
 12      -0.000002804433
 13       0.000000253567
 14      -2.032406392573
 15      -0.000004200734
 16      -0.000009407758
 17      -0.000004740897
 18       0.000000006330
 19      -0.000000005675
 20       0.000009459848
 21       0.000016316338
 22      -0.000010325938
 23       0.000000048377
 24       0.000000013847
 25       0.000985499952
 26      -0.000000004896
 27      -0.000000006905
 28       0.000001667351
 29       0.000002440542
 30       0.000002611611
 31      -0.000001006116
 32       0.000185384685
 33       0.000122304831
 34      -0.000109435145
 35       0.000162852006
 36      -0.000000824406
 37       0.000000291707
 38       0.000008607776
 39       0.000035631946
 40       0.000380887215
 41       0.000001482272
 42      -0.000003501383
 43      -0.005955070025
 44       0.000032802712
 45      -0.000078140859
 46       1.140453181769
 47       0.000008597976
 48       0.000035626510
 49       0.000377815776
 50       0.000002283214
 51       0.000003032187
 52      -0.005937407278
 53       0.000050022709
 54       0.000065926948
 55       1.141515026270
 56       0.000008621085
 57       0.000035454717
 58       0.000385331934
 59      -0.000003742098
 60       0.000000468542
 61      -0.005958354845
 62      -0.000083580989
 63       0.000009925486
 64       1.140851690092
 Sym=     1a
 Ene= 2.59019714037502E-01
 Spin= Alpha
 Occup= 0.000000
  1      -0.000000018196
  2      -0.000000040344
  3       0.000000142844
  4      -0.000000378711
  5       0.000010654829
  6      -0.000002389777
  7       0.000008886734
  8       0.000054754814
  9       0.000014156153
 10      -0.000053106932
 11       0.000112574329
 12      -0.000253683398
 13       0.000948184025
 14       0.000790539363
 15      -0.000000022848
 16       0.006908564005
 17      -0.026153405970
 18       0.000000756333
 19       0.000001048613
 20       0.000000042893
 21      -0.004265014238
 22       0.016155663827
 23       0.000015346265
 24       0.000021059853
 25      -0.000002542807
 26      -0.000000678047
 27       0.000002534826
 28      -0.001370559344
 29      -0.001883361375
 30       0.000000011182
 31      -0.000000002975
 32       0.000000916075
 33      -0.000001053988
 34       0.091370675226
 35      -0.345786314484
 36      -0.000521529721
 37      -0.000716625022
 38       0.000005962042
 39       0.000071213869
 40      -0.002256509393
 41       0.000004610455
 42      -0.000010773857
 43      -0.026401798301
 44       0.000026749426
 45       0.000140677620
 46      -0.783283902173
 47      -0.000003760823
 48      -0.000044160065
 49       0.001396338883
 50      -0.000004550858
 51      -0.000005680080
 52       0.016478721561
 53      -0.000311816440
 54       0.000325357102
 55       0.488185711251
 56      -0.000002261916
 57      -0.000026797245
 58       0.000847659860
 59       0.000004408837
 60      -0.000000279435
 61       0.009929146597
 62       0.000020541336
 63       0.000526140531
 64       0.293784481115
 Sym=     1a
 Ene= 2.59023875368870E-01
 Spin= Alpha
 Occup= 0.000000
  1      -0.000000029094
  2      -0.000000070856
  3       0.000000295300
  4      -0.000000854674
  5       0.000018431780
  6       0.000008870614
  7       0.000002366523
  8       0.000024794071
  9      -0.000053079422
 10      -0.000014042116
 11       0.000160017297
 12       0.000948420402
 13       0.000251642142
 14       0.000757457463
 15       0.000000027229
 16      -0.026166932946
 17      -0.006911212952
 18      -0.000001072319
 19       0.000000786669
 20       0.000000031159
 21       0.016239982489
 22       0.004299556638
 23      -0.000021055074
 24       0.000015297852
 25      -0.000000359389
 26       0.000002533460
 27       0.000000669564
 28       0.001889616403
 29      -0.001371042682
 30       0.000000020587
 31      -0.000000010170
 32       0.000001106244
 33      -0.000000862732
 34      -0.345926746673
 35      -0.091463300125
 36       0.000716734085
 37      -0.000520981080
 38      -0.000000901272
 39      -0.000010000911
 40       0.000312878712
 41      -0.000000376990
 42       0.000001612028
 43       0.003786348595
 44       0.000521836315
 45       0.000204388599
 46       0.111777503473
 47      -0.000004781255
 48      -0.000056292384
 49       0.001783102251
 50      -0.000005435045
 51      -0.000007519432
 52       0.020984333770
 53       0.000334101537
 54      -0.000137175521
 55       0.621325020037
 56       0.000005568127
 57       0.000066756993
 58      -0.002116845228
 59      -0.000010921536
 60       0.000001469592
 61      -0.024766186673
 62       0.000136383956
 63       0.000196175647
 64      -0.734408790106
 Sym=     1a
 Ene= 3.04913323787600E-01
 Spin= Alpha
 Occup= 0.000000
  1       0.058077986564
  2       0.132124141704
  3      -0.433804164892
  4       0.886009512178
  5     -30.085995267454
  6       0.000014783958
  7       0.000029856132
  8       0.000017108392
  9       0.000013139467
 10       0.000091224051
 11      -0.000024159332
 12      -0.000352063224
 13       0.000292170876
 14       0.000934534537
 15      -0.017117400953
 16      -0.000000014183
 17       0.000000003776
 18       0.000003998675
 19      -0.000002583632
 20      -0.126573926543
 21      -0.000000080618
 22       0.000000139639
 23      -0.000006301407
 24      -0.000090146717
 25       0.000005066136
 26      -0.000007244167
 27      -0.000002710746
 28      -0.000000026790
 29      -0.000000024165
 30      -0.040279560391
 31       0.015590211219
 32      -2.655159757750
 33       1.983112401961
 34       0.000001475323
 35      -0.000003313862
 36      -0.000173258686
 37       0.001887695303
 38       0.054033349023
 39      -0.284743405127
 40      11.901523046744
 41      -0.024720967134
 42       0.058373370032
 43      -0.000004888756
 44       0.923361061326
 45      -2.181898776457
 46       0.000225329284
 47       0.054058610634
 48      -0.284501749827
 49      11.897094919975
 50      -0.038183442572
 51      -0.050574537309
 52      -0.000004932221
 53       1.427820629539
 54       1.891054171229
 55       0.000225897708
 56       0.054050100817
 57      -0.284637593540
 58      11.901134044934
 59       0.062908473904
 60      -0.007783557006
 61      -0.000004945698
 62      -2.351690759301
 63       0.290243199147
 64       0.000224838631
 Sym=     1a
 Ene= 3.66869511883747E-01
 Spin= Alpha
 Occup= 0.000000
  1       0.019606205357
  2       0.047134137079
  3      -0.110787026867
  4       0.308356177009
  5     -28.932045587999
  6      -0.000512126174
  7      -0.000170498517
  8       0.000024917591
  9       0.000280508501
 10       0.000123158163
 11       0.000030385754
 12      -0.025635333204
 13      -0.009666833107
 14       0.001173671108
 15      -0.037976208581
 16       0.000000000124
 17       0.000000017583
 18       0.000055444800
 19      -0.000047058260
 20       0.087025199404
 21      -0.000000125848
 22      -0.000000080357
 23       0.000191808541
 24      -0.000210763715
 25      -0.000000984716
 26      -0.000035371628
 27      -0.000017513630
 28      -0.000000009997
 29       0.000000017409
 30       0.013891136738
 31      -0.005406200098
 32       3.397629330459
 33      -0.464556133062
 34       0.000005157204
 35      -0.000001657915
 36      -0.003803297059
 37       0.004776436616
 38       0.053024437892
 39       0.102086156184
 40       8.171342668007
 41       0.004573984535
 42      -0.010915512402
 43       0.000005026368
 44       1.362229867826
 45      -3.237370953770
 46      -0.000020303227
 47       0.052880502018
 48       0.102653423381
 49       8.130804387034
 50       0.007206346267
 51       0.009550840596
 52       0.000005067321
 53       2.117231488388
 54       2.791974659727
 55      -0.000021082467
 56       0.053175965790
 57       0.101508921263
 58       8.210764693793
 59      -0.011617847980
 60       0.001439387548
 61       0.000005069855
 62      -3.493846971738
 63       0.438954201185
 64      -0.000027073556
 Sym=     1a
 Ene= 3.68749376101465E-01
 Spin= Alpha
 Occup= 0.000000
  1      -0.000083295856
  2      -0.000197768223
  3       0.000490992195
  4      -0.001500391874
  5       0.126037508399
  6      -0.000144066306
  7       0.000143125671
  8      -0.000000105157
  9       0.000010692920
 10      -0.000061388204
 11      -0.000000136952
 12      -0.009057168751
 13       0.007677078914
 14      -0.000005053235
 15       0.000168533615
 16      -0.000000005369
 17       0.000000000118
 18       0.000025416247
 19       0.000013233500
 20      -0.000347133320
 21       0.000000003492
 22       0.000000019959