
                                 *****************
                                 * O   R   C   A *
                                 *****************

                                            #,                                       
                                            ###                                      
                                            ####                                     
                                            #####                                    
                                            ######                                   
                                           ########,                                 
                                     ,,################,,,,,                         
                               ,,#################################,,                 
                          ,,##########################################,,             
                       ,#########################################, ''#####,          
                    ,#############################################,,   '####,        
                  ,##################################################,,,,####,       
                ,###########''''           ''''###############################       
              ,#####''   ,,,,##########,,,,          '''####'''          '####       
            ,##' ,,,,###########################,,,                        '##       
           ' ,,###''''                  '''############,,,                           
         ,,##''                                '''############,,,,        ,,,,,,###''
      ,#''                                            '''#######################'''  
     '                                                          ''''####''''         
             ,#######,   #######,   ,#######,      ##                                
            ,#'     '#,  ##    ##  ,#'     '#,    #''#        ######   ,####,        
            ##       ##  ##   ,#'  ##            #'  '#       #        #'  '#        
            ##       ##  #######   ##           ,######,      #####,   #    #        
            '#,     ,#'  ##    ##  '#,     ,#' ,#      #,         ##   #,  ,#        
             '#######'   ##     ##  '#######'  #'      '#     #####' # '####'        



                  #######################################################
                  #                        -***-                        #
                  #          Department of theory and spectroscopy      #
                  #    Directorship and core code : Frank Neese         #
                  #        Max Planck Institute fuer Kohlenforschung    #
                  #                Kaiser Wilhelm Platz 1               #
                  #                 D-45470 Muelheim/Ruhr               #
                  #                      Germany                        #
                  #                                                     #
                  #                  All rights reserved                #
                  #                        -***-                        #
                  #######################################################


                         Program Version 5.0.4 -  RELEASE  -


 With contributions from (in alphabetic order):
   Daniel Aravena         : Magnetic Suceptibility
   Michael Atanasov       : Ab Initio Ligand Field Theory (pilot matlab implementation)
   Alexander A. Auer      : GIAO ZORA, VPT2 properties, NMR spectrum
   Ute Becker             : Parallelization
   Giovanni Bistoni       : ED, misc. LED, open-shell LED, HFLD
   Martin Brehm           : Molecular dynamics
   Dmytro Bykov           : SCF Hessian
   Vijay G. Chilkuri      : MRCI spin determinant printing, contributions to CSF-ICE
   Dipayan Datta          : RHF DLPNO-CCSD density
   Achintya Kumar Dutta   : EOM-CC, STEOM-CC
   Dmitry Ganyushin       : Spin-Orbit,Spin-Spin,Magnetic field MRCI
   Miquel Garcia          : C-PCM and meta-GGA Hessian, CC/C-PCM, Gaussian charge scheme
   Yang Guo               : DLPNO-NEVPT2, F12-NEVPT2, CIM, IAO-localization
   Andreas Hansen         : Spin unrestricted coupled pair/coupled cluster methods
   Benjamin Helmich-Paris : MC-RPA, TRAH-SCF, COSX integrals
   Lee Huntington         : MR-EOM, pCC
   Robert Izsak           : Overlap fitted RIJCOSX, COSX-SCS-MP3, EOM
   Marcus Kettner         : VPT2
   Christian Kollmar      : KDIIS, OOCD, Brueckner-CCSD(T), CCSD density, CASPT2, CASPT2-K
   Simone Kossmann        : Meta GGA functionals, TD-DFT gradient, OOMP2, MP2 Hessian
   Martin Krupicka        : Initial AUTO-CI
   Lucas Lang             : DCDCAS
   Marvin Lechner         : AUTO-CI (C++ implementation), FIC-MRCC
   Dagmar Lenk            : GEPOL surface, SMD
   Dimitrios Liakos       : Extrapolation schemes; Compound Job, initial MDCI parallelization
   Dimitrios Manganas     : Further ROCIS development; embedding schemes
   Dimitrios Pantazis     : SARC Basis sets
   Anastasios Papadopoulos: AUTO-CI, single reference methods and gradients
   Taras Petrenko         : DFT Hessian,TD-DFT gradient, ASA, ECA, R-Raman, ABS, FL, XAS/XES, NRVS
   Peter Pinski           : DLPNO-MP2, DLPNO-MP2 Gradient
   Christoph Reimann      : Effective Core Potentials
   Marius Retegan         : Local ZFS, SOC
   Christoph Riplinger    : Optimizer, TS searches, QM/MM, DLPNO-CCSD(T), (RO)-DLPNO pert. Triples
   Tobias Risthaus        : Range-separated hybrids, TD-DFT gradient, RPA, STAB
   Michael Roemelt        : Original ROCIS implementation
   Masaaki Saitow         : Open-shell DLPNO-CCSD energy and density
   Barbara Sandhoefer     : DKH picture change effects
   Avijit Sen             : IP-ROCIS
   Kantharuban Sivalingam : CASSCF convergence, NEVPT2, FIC-MRCI
   Bernardo de Souza      : ESD, SOC TD-DFT
   Georgi Stoychev        : AutoAux, RI-MP2 NMR, DLPNO-MP2 response
   Willem Van den Heuvel  : Paramagnetic NMR
   Boris Wezisla          : Elementary symmetry handling
   Frank Wennmohs         : Technical directorship


 We gratefully acknowledge several colleagues who have allowed us to
 interface, adapt or use parts of their codes:
   Stefan Grimme, W. Hujo, H. Kruse, P. Pracht,  : VdW corrections, initial TS optimization,
                  C. Bannwarth, S. Ehlert          DFT functionals, gCP, sTDA/sTD-DF
   Ed Valeev, F. Pavosevic, A. Kumar             : LibInt (2-el integral package), F12 methods
   Garnet Chan, S. Sharma, J. Yang, R. Olivares  : DMRG
   Ulf Ekstrom                                   : XCFun DFT Library
   Mihaly Kallay                                 : mrcc  (arbitrary order and MRCC methods)
   Jiri Pittner, Ondrej Demel                    : Mk-CCSD
   Frank Weinhold                                : gennbo (NPA and NBO analysis)
   Christopher J. Cramer and Donald G. Truhlar   : smd solvation model
   Lars Goerigk                                  : TD-DFT with DH, B97 family of functionals
   V. Asgeirsson, H. Jonsson                     : NEB implementation
   FAccTs GmbH                                   : IRC, NEB, NEB-TS, DLPNO-Multilevel, CI-OPT
                                                   MM, QMMM, 2- and 3-layer-ONIOM, Crystal-QMMM,
                                                   LR-CPCM, SF, NACMEs, symmetry and pop. for TD-DFT,
                                                   nearIR, NL-DFT gradient (VV10), updates on ESD,
                                                   ML-optimized integration grids
   S Lehtola, MJT Oliveira, MAL Marques          : LibXC Library
   Liviu Ungur et al                             : ANISO software


 Your calculation uses the libint2 library for the computation of 2-el integrals
 For citations please refer to: http://libint.valeyev.net

 Your ORCA version has been built with support for libXC version: 5.1.0
 For citations please refer to: https://tddft.org/programs/libxc/

 This ORCA versions uses:
   CBLAS   interface :  Fast vector & matrix operations
   LAPACKE interface :  Fast linear algebra routines
   SCALAPACK package :  Parallel linear algebra routines
   Shared memory     :  Shared parallel matrices
   BLAS/LAPACK       :  OpenBLAS 0.3.15  USE64BITINT DYNAMIC_ARCH NO_AFFINITY SkylakeX SINGLE_THREADED
        Core in use  :  SkylakeX
   Copyright (c) 2011-2014, The OpenBLAS Project


Your calculation utilizes the atom-pairwise dispersion correction
with the zero-damping scheme (D30)
Cite in your paper:
S.Grimme, J.Antony, S.Ehrlich and H.Krieg, J.Chem.Phys., 132, (2010), 154104 
   

XCFun DFT library Copyright 2009-2010 Ulf Ekstrom and contributors.
See http://admol.org/xcfun for more information.
This is free software; see the source code for copying conditions.
There is ABSOLUTELY NO WARRANTY; not even for MERCHANTABILITY or FITNESS FOR A PARTICULAR PURPOSE.
For details see the documentation.
Scientific users of this library should cite U. Ekstrom, L. Visscher, R. Bast, A. J. Thorvaldsen and K. Ruud;
J.Chem.Theor.Comp. 2010, DOI: 10.1021/ct100117s
XCFun Version 0.99 

================================================================================

----- Orbital basis set information -----
Your calculation utilizes the basis: def2-TZVPD
   F. Weigend and R. Ahlrichs, Phys. Chem. Chem. Phys. 7, 3297 (2005).
   D. Rappoport and F. Furche, J. Chem. Phys. 133 134105 (2010).

----- AuxJ basis set information -----
Your calculation utilizes the auxiliary basis: def2/J
   F. Weigend, Phys. Chem. Chem. Phys. 8, 1057 (2006).

================================================================================
                                        WARNINGS
                       Please study these warnings very carefully!
================================================================================


WARNING: Geometry Optimization
  ===> : Switching off AutoStart
         For restart on a previous wavefunction, please use MOREAD

INFO   : the flag for use of the SHARK integral package has been found!

================================================================================
                                       INPUT FILE
================================================================================
NAME = /beegfs/scratch/ispackman/PFAS_EPR_calcs/benchmark/JChemEd_CF3_radical/CF3_radical_100.0_degrees_IN-PROGRESS/CF3_radical_100.0_degrees.inp
|  1> ! UKS TightSCF wB97x-D3 def2-TZVPD xyzfile opt freq
|  2> 
|  3> # CF3 radical 100.0 degrees fixed
|  4> 
|  5> %maxcore 1000
|  6> %pal
|  7> nprocs 18
|  8> end
|  9> 
| 10> %geom Constraints
| 11>         { A * 0 * C }
| 12>     end
| 13> end
| 14> * xyz 0 2
| 15> C 0.00 0.00 0.00
| 16> F 1.1631857891 0.0000000000 -0.6133708666
| 17> F -0.5815928946 1.0073484427 -0.6133708666
| 18> F -0.5815928946 -1.0073484427 -0.6133708666
| 19> **                         ****END OF INPUT****
================================================================================

                       *****************************
                       * Geometry Optimization Run *
                       *****************************

Geometry optimization settings:
Update method            Update   .... BFGS
Choice of coordinates    CoordSys .... Z-matrix Internals
Initial Hessian          InHess   .... Almoef's Model

Convergence Tolerances:
Energy Change            TolE     ....  5.0000e-06 Eh
Max. Gradient            TolMAXG  ....  3.0000e-04 Eh/bohr
RMS Gradient             TolRMSG  ....  1.0000e-04 Eh/bohr
Max. Displacement        TolMAXD  ....  4.0000e-03 bohr
RMS Displacement         TolRMSD  ....  2.0000e-03 bohr
Strict Convergence                ....  False
------------------------------------------------------------------------------
                        ORCA OPTIMIZATION COORDINATE SETUP
------------------------------------------------------------------------------

The optimization will be done in new redundant internal coordinates
Making redundant internal coordinates   ...  (new redundants) done
Evaluating the initial hessian          ...  (Almloef) done
Evaluating the coordinates              ...  done
Calculating the B-matrix                .... done
Calculating the G-matrix                .... done
Diagonalizing the G-matrix              .... done
Imposing constraints:
 Iter   0:  RMS(Cart)=    0.0000000000 RMS(Int)=    0.0000000000
CONVERGED
Will constrain atom 0 coordinate 1 
Will constrain atom 0 coordinate 2 
Will constrain atom 1 coordinate 2 
The first mode is                       ....    1
The number of degrees of freedom        ....    6
Storing new coordinates                 .... done

    -----------------------------------------------------------------
                    Redundant Internal Coordinates


    -----------------------------------------------------------------
         Definition                    Initial Value    Approx d2E/dq
    -----------------------------------------------------------------
      1. B(F   1,C   0)                  1.3150         0.684896   
      2. B(F   2,C   0)                  1.3150         0.684896   
      3. B(F   3,C   0)                  1.3150         0.684896   
      4. A(F   2,C   0,F   3)          100.0000         0.440101 C 
      5. A(F   1,C   0,F   2)          100.0000         0.440101 C 
      6. A(F   1,C   0,F   3)          100.0000         0.440101 C 
      7. I(F   1,F   3,F   2,C   0)     74.3269         0.002959   
    -----------------------------------------------------------------

Number of atoms                         .... 4
Number of degrees of freedom            .... 7

         *************************************************************
         *                GEOMETRY OPTIMIZATION CYCLE   1            *
         *************************************************************
---------------------------------
CARTESIAN COORDINATES (ANGSTROEM)
---------------------------------
  C      0.000000    0.000000    0.000000
  F      1.163186    0.000000   -0.613371
  F     -0.581593    1.007348   -0.613371
  F     -0.581593   -1.007348   -0.613371

----------------------------
CARTESIAN COORDINATES (A.U.)
----------------------------
  NO LB      ZA    FRAG     MASS         X           Y           Z
   0 C     6.0000    0    12.011    0.000000    0.000000    0.000000
   1 F     9.0000    0    18.998    2.198103    0.000000   -1.159103
   2 F     9.0000    0    18.998   -1.099051    1.903613   -1.159103
   3 F     9.0000    0    18.998   -1.099051   -1.903613   -1.159103

--------------------------------
INTERNAL COORDINATES (ANGSTROEM)
--------------------------------
 C      0   0   0     0.000000000000     0.00000000     0.00000000
 F      1   0   0     1.314999999984     0.00000000     0.00000000
 F      1   2   0     1.315000000020   100.00000000     0.00000000
 F      1   2   3     1.315000000020   100.00000000   102.13045784

---------------------------
INTERNAL COORDINATES (A.U.)
---------------------------
 C      0   0   0     0.000000000000     0.00000000     0.00000000
 F      1   0   0     2.484989866076     0.00000000     0.00000000
 F      1   2   0     2.484989866144   100.00000000     0.00000000
 F      1   2   3     2.484989866144   100.00000000   102.13045784

---------------------
BASIS SET INFORMATION
---------------------
There are 2 groups of distinct atoms

 Group   1 Type C   : 12s6p3d1f contracted to 6s3p3d1f pattern {621111/411/111/1}
 Group   2 Type F   : 12s7p3d1f contracted to 6s4p3d1f pattern {621111/4111/111/1}

Atom   0C    basis set group =>   1
Atom   1F    basis set group =>   2
Atom   2F    basis set group =>   2
Atom   3F    basis set group =>   2
---------------------------------
AUXILIARY/J BASIS SET INFORMATION
---------------------------------
There are 2 groups of distinct atoms

 Group   1 Type C   : 12s5p4d2f1g contracted to 6s4p3d1f1g pattern {711111/2111/211/2/1}
 Group   2 Type F   : 12s5p4d2f1g contracted to 6s4p3d1f1g pattern {711111/2111/211/2/1}

Atom   0C    basis set group =>   1
Atom   1F    basis set group =>   2
Atom   2F    basis set group =>   2
Atom   3F    basis set group =>   2


           ************************************************************
           *        Program running with 18 parallel MPI-processes    *
           *              working on a common directory               *
           ************************************************************
------------------------------------------------------------------------------
                           ORCA GTO INTEGRAL CALCULATION
                           -- RI-GTO INTEGRALS CHOSEN --
------------------------------------------------------------------------------
------------------------------------------------------------------------------
                   ___                                                        
                  /   \      - P O W E R E D   B Y -                         
                 /     \                                                     
                 |  |  |   _    _      __       _____    __    __             
                 |  |  |  | |  | |    /  \     |  _  \  |  |  /  |          
                  \  \/   | |  | |   /    \    | | | |  |  | /  /          
                 / \  \   | |__| |  /  /\  \   | |_| |  |  |/  /          
                |  |  |   |  __  | /  /__\  \  |    /   |      \           
                |  |  |   | |  | | |   __   |  |    \   |  |\   \          
                \     /   | |  | | |  |  |  |  | |\  \  |  | \   \       
                 \___/    |_|  |_| |__|  |__|  |_| \__\ |__|  \__/        
                                                                              
                      - O R C A' S   B I G   F R I E N D -                    
                                      &                                       
                       - I N T E G R A L  F E E D E R -                       
                                                                              
 v1 FN, 2020, v2 2021                                                         
------------------------------------------------------------------------------


Reading SHARK input file /beegfs/scratch/ispackman/PFAS_EPR_calcs/benchmark/JChemEd_CF3_radical/CF3_radical_100.0_degrees_IN-PROGRESS/CF3_radical_100.0_degrees.SHARKINP.tmp ... ok
----------------------
SHARK INTEGRAL PACKAGE
----------------------

Number of atoms                             ...      4
Number of basis functions                   ...    157
Number of shells                            ...     55
Maximum angular momentum                    ...      3
Integral batch strategy                     ... SHARK/LIBINT Hybrid
RI-J (if used) integral strategy            ... SPLIT-RIJ (Revised 2003 algorithm where possible)
Printlevel                                  ...      1
Contraction scheme used                     ... SEGMENTED contraction
Coulomb Range Separation                    ... NOT USED
Exchange Range Separation                   ... Long Range
   Mu parameter                             ...  0.250000
   Scaling (regular/separated)              ...  0.195728  0.804272
Finite Nucleus Model                        ... NOT USED
Auxiliary Coulomb fitting basis             ... AVAILABLE
   # of basis functions in Aux-J            ...    196
   # of shells in Aux-J                     ...     60
   Maximum angular momentum in Aux-J        ...      4
Auxiliary J/K fitting basis                 ... NOT available
Auxiliary Correlation fitting basis         ... NOT available
Auxiliary 'external' fitting basis          ... NOT available
Integral threshold                          ...     2.500000e-11
Primitive cut-off                           ...     2.500000e-12
Primitive pair pre-selection threshold      ...     2.500000e-12

Calculating pre-screening integrals         ... done (  0.0 sec) Dimension = 55
Organizing shell pair data                  ... done (  0.0 sec)
Shell pair information
Total number of shell pairs                 ...      1540
Shell pairs after pre-screening             ...      1510
Total number of primitive shell pairs       ...      4274
Primitive shell pairs kept                  ...      3581
          la=0 lb=0:    282 shell pairs
          la=1 lb=0:    360 shell pairs
          la=1 lb=1:    120 shell pairs
          la=2 lb=0:    276 shell pairs
          la=2 lb=1:    180 shell pairs
          la=2 lb=2:     78 shell pairs
          la=3 lb=0:     96 shell pairs
          la=3 lb=1:     60 shell pairs
          la=3 lb=2:     48 shell pairs
          la=3 lb=3:     10 shell pairs

Calculating one electron integrals          ... done (  0.0 sec)
Calculating RI/J V-Matrix + Cholesky decomp.... done (  1.5 sec)
Calculating Nuclear repulsion               ... done (  0.0 sec) ENN=    129.017421771065 Eh

SHARK setup successfully completed in  13.3 seconds

Maximum memory used throughout the entire GTOINT-calculation: 15.2 MB


           ************************************************************
           *        Program running with 18 parallel MPI-processes    *
           *              working on a common directory               *
           ************************************************************
-------------------------------------------------------------------------------
                                 ORCA SCF
-------------------------------------------------------------------------------

------------
SCF SETTINGS
------------
Hamiltonian:
 Density Functional     Method          .... DFT(GTOs)
 Exchange Functional    Exchange        .... WB97X-D3
 Correlation Functional Correlation     .... WB97X-D3
 Gradients option       PostSCFGGA      .... off
 Hybrid DFT is turned on
   Fraction HF Exchange ScalHFX         ....  0.195728
   Scaling of DF-GGA-X  ScalDFX         ....  0.000000
   Scaling of DF-GGA-C  ScalDFC         ....  1.000000
   Scaling of DF-LDA-C  ScalLDAC        ....  1.000000
   Perturbative correction              ....  0.000000
   Density functional embedding theory  .... OFF
 Long-range corrected/Screened/Range-Separated Hybrid DFT is turned on
   Amount of maximum screened exact exchange              ....  0.804272
   Range separation parameter mu (erf(mu*r12)/r12)        ....  0.250000
 RI-approximation to the Coulomb term is turned on
   Number of AuxJ basis functions       .... 196
   RIJ-COSX (HFX calculated with COS-X)).... on


General Settings:
 Integral files         IntName         .... /beegfs/scratch/ispackman/PFAS_EPR_calcs/benchmark/JChemEd_CF3_radical/CF3_radical_100.0_degrees_IN-PROGRESS/CF3_radical_100.0_degrees
 Hartree-Fock type      HFTyp           .... UHF
 Total Charge           Charge          ....    0
 Multiplicity           Mult            ....    2
 Number of Electrons    NEL             ....   33
 Basis Dimension        Dim             ....  157
 Nuclear Repulsion      ENuc            ....    129.0174217711 Eh

Convergence Acceleration:
 DIIS                   CNVDIIS         .... on
   Start iteration      DIISMaxIt       ....    12
   Startup error        DIISStart       ....  0.200000
   # of expansion vecs  DIISMaxEq       ....     5
   Bias factor          DIISBfac        ....   1.050
   Max. coefficient     DIISMaxC        ....  10.000
 Trust-Rad. Augm. Hess. CNVTRAH         .... auto
   Auto Start mean grad. ratio tolernc. ....  1.125000
   Auto Start start iteration           ....    20
   Auto Start num. interpolation iter.  ....    10
   Max. Number of Micro iterations      ....    16
   Max. Number of Macro iterations      .... Maxiter - #DIIS iter
   Number of Davidson start vectors     ....     2
   Converg. threshold I  (grad. norm)   ....   1.000e-05
   Converg. threshold II (energy diff.) ....   1.000e-08
   Grad. Scal. Fac. for Micro threshold ....   0.100
   Minimum threshold for Micro iter.    ....   0.010
   NR start threshold (gradient norm)   ....   0.001
   Initial trust radius                 ....   0.400
   Minimum AH scaling param. (alpha)    ....   1.000
   Maximum AH scaling param. (alpha)    .... 1000.000
   Orbital update algorithm             .... Taylor
   White noise on init. David. guess    .... on
   Maximum white noise                  ....   0.010
   Quad. conv. algorithm                .... NR
 SOSCF                  CNVSOSCF        .... off
 Level Shifting         CNVShift        .... on
   Level shift para.    LevelShift      ....    0.2500
   Turn off err/grad.   ShiftErr        ....    0.0010
 Zerner damping         CNVZerner       .... off
 Static damping         CNVDamp         .... on
   Fraction old density DampFac         ....    0.7000
   Max. Damping (<1)    DampMax         ....    0.9800
   Min. Damping (>=0)   DampMin         ....    0.0000
   Turn off err/grad.   DampErr         ....    0.1000
 Fernandez-Rico         CNVRico         .... off

SCF Procedure:
 Maximum # iterations   MaxIter         ....   125
 SCF integral mode      SCFMode         .... Direct
   Integral package                     .... SHARK and LIBINT hybrid scheme
 Reset frequency        DirectResetFreq ....    20
 Integral Threshold     Thresh          ....  2.500e-11 Eh
 Primitive CutOff       TCut            ....  2.500e-12 Eh

Convergence Tolerance:
 Convergence Check Mode ConvCheckMode   .... Total+1el-Energy
 Convergence forced     ConvForced      .... 0
 Energy Change          TolE            ....  1.000e-08 Eh
 1-El. energy change                    ....  1.000e-05 Eh
 DIIS Error             TolErr          ....  5.000e-07


Diagonalization of the overlap matrix:
Smallest eigenvalue                        ... 3.612e-04
Time for diagonalization                   ...    0.008 sec
Threshold for overlap eigenvalues          ... 1.000e-08
Number of eigenvalues below threshold      ... 0
Time for construction of square roots      ...    0.015 sec
Total time needed                          ...    0.024 sec

Time for model grid setup =    0.050 sec

------------------------------
INITIAL GUESS: MODEL POTENTIAL
------------------------------
Loading Hartree-Fock densities                     ... done
Calculating cut-offs                               ... done
Initializing the effective Hamiltonian             ... done
Setting up the integral package (SHARK)            ... done
Starting the Coulomb interaction                   ... done (   0.3 sec)
Reading the grid                                   ... done
Mapping shells                                     ... done
Starting the XC term evaluation                    ... done (   0.0 sec)
  promolecular density results
     # of electrons  =     33.000291542
     EX              =    -35.104153335
     EC              =     -1.148616805
     EX+EC           =    -36.252770141
Transforming the Hamiltonian                       ... done (   0.0 sec)
Diagonalizing the Hamiltonian                      ... done (   0.0 sec)
Back transforming the eigenvectors                 ... done (   0.0 sec)
Now organizing SCF variables                       ... done
                      ------------------
                      INITIAL GUESS DONE (   0.5 sec)
                      ------------------
-------------------
DFT GRID GENERATION
-------------------

General Integration Accuracy     IntAcc      ... 4.388
Radial Grid Type                 RadialGrid  ... OptM3 with GC (2021)
Angular Grid (max. ang.)         AngularGrid ... 4 (Lebedev-302)
Angular grid pruning method      GridPruning ... 4 (adaptive)
Weight generation scheme         WeightScheme... Becke
Basis function cutoff            BFCut       ... 1.0000e-11
Integration weight cutoff        WCut        ... 1.0000e-14
Angular grids for H and He will be reduced by one unit
Partially contracted basis set               ... off
Rotationally invariant grid construction     ... off

Total number of grid points                  ...    25776
Total number of batches                      ...      405
Average number of points per batch           ...       63
Average number of grid points per atom       ...     6444
Time for grid setup =    0.151 sec

--------------------
COSX GRID GENERATION
--------------------

GRIDX 1
-------
General Integration Accuracy     IntAcc      ... 3.816
Radial Grid Type                 RadialGrid  ... OptM3 with GC (2021)
Angular Grid (max. ang.)         AngularGrid ... 1 (Lebedev-50)
Angular grid pruning method      GridPruning ... 4 (adaptive)
Weight generation scheme         WeightScheme... Becke
Basis function cutoff            BFCut       ... 1.0000e-11
Integration weight cutoff        WCut        ... 1.0000e-14
Angular grids for H and He will be reduced by one unit
Partially contracted basis set               ... on
Rotationally invariant grid construction     ... off

Total number of grid points                  ...     3272
Total number of batches                      ...       53
Average number of points per batch           ...       61
Average number of grid points per atom       ...      818
UseSFitting                                  ... on

GRIDX 2
-------
General Integration Accuracy     IntAcc      ... 4.020
Radial Grid Type                 RadialGrid  ... OptM3 with GC (2021)
Angular Grid (max. ang.)         AngularGrid ... 2 (Lebedev-110)
Angular grid pruning method      GridPruning ... 4 (adaptive)
Weight generation scheme         WeightScheme... Becke
Basis function cutoff            BFCut       ... 1.0000e-11
Integration weight cutoff        WCut        ... 1.0000e-14
Angular grids for H and He will be reduced by one unit
Partially contracted basis set               ... on
Rotationally invariant grid construction     ... off

Total number of grid points                  ...     9121
Total number of batches                      ...      145
Average number of points per batch           ...       62
Average number of grid points per atom       ...     2280
UseSFitting                                  ... on

GRIDX 3
-------
General Integration Accuracy     IntAcc      ... 4.338
Radial Grid Type                 RadialGrid  ... OptM3 with GC (2021)
Angular Grid (max. ang.)         AngularGrid ... 3 (Lebedev-194)
Angular grid pruning method      GridPruning ... 4 (adaptive)
Weight generation scheme         WeightScheme... Becke
Basis function cutoff            BFCut       ... 1.0000e-11
Integration weight cutoff        WCut        ... 1.0000e-14
Angular grids for H and He will be reduced by one unit
Partially contracted basis set               ... on
Rotationally invariant grid construction     ... off

Total number of grid points                  ...    19677
Total number of batches                      ...      309
Average number of points per batch           ...       63
Average number of grid points per atom       ...     4919
UseSFitting                                  ... on

Time for X-Grid setup             =    0.404 sec

--------------
SCF ITERATIONS
--------------
ITER       Energy         Delta-E        Max-DP      RMS-DP      [F,P]     Damp
               ***  Starting incremental Fock matrix formation  ***
  0   -337.5313373849   0.000000000000 0.01769206  0.00040846  0.0680802 0.7000
  1   -337.5598998386  -0.028562453713 0.01050854  0.00027144  0.0318799 0.7000
                               ***Turning on DIIS***
  2   -337.5717442579  -0.011844419288 0.02534706  0.00051463  0.0167559 0.0000
  3   -337.5927591803  -0.021014922441 0.00661758  0.00015220  0.0149548 0.0000
  4   -337.5961432825  -0.003384102113 0.00505337  0.00008168  0.0035161 0.0000
  5   -337.5963605213  -0.000217238880 0.00292027  0.00004843  0.0020321 0.0000
  6   -337.5964264425  -0.000065921191 0.00254172  0.00004400  0.0008635 0.0000
               *** Restarting incremental Fock matrix formation ***
                                   *** Resetting DIIS ***
  7   -337.5964539411  -0.000027498570 0.00049803  0.00000764  0.0001841 0.0000
  8   -337.5964547637  -0.000000822612 0.00009057  0.00000214  0.0000967 0.0000
  9   -337.5964549602  -0.000000196473 0.00005805  0.00000151  0.0000926 0.0000
 10   -337.5964550573  -0.000000097063 0.00004702  0.00000058  0.0000116 0.0000
 11   -337.5964550598  -0.000000002541 0.00001383  0.00000016  0.0000019 0.0000
                            ***DIIS convergence achieved***

               *****************************************************
               *                     SUCCESS                       *
               *           SCF CONVERGED AFTER  12 CYCLES          *
               *****************************************************

Old exchange energy                            =    -10.542974966 Eh
New exchange energy                            =    -10.542958431 Eh
Exchange energy change after final integration =      0.000016536 Eh
Total energy after final integration           =   -337.596438524 Eh
Final COS-X integration done in                =     0.400 sec

----------------
TOTAL SCF ENERGY
----------------

Total Energy       :         -337.59643852 Eh           -9186.46612 eV

Components:
Nuclear Repulsion  :          129.01742177 Eh            3510.74253 eV
Electronic Energy  :         -466.61386029 Eh          -12697.20865 eV
One Electron Energy:         -724.98232173 Eh          -19727.77191 eV
Two Electron Energy:          258.36846144 Eh            7030.56326 eV
Max COSX asymmetry :            0.00000044 Eh               0.00001 eV

Virial components:
Potential Energy   :         -674.42200812 Eh          -18351.95584 eV
Kinetic Energy     :          336.82556960 Eh            9165.48971 eV
Virial Ratio       :            2.00228863


DFT components:
N(Alpha)           :       16.999884571038 electrons
N(Beta)            :       15.999894886848 electrons
N(Total)           :       32.999779457886 electrons
E(XC)              :      -26.217693276744 Eh       
DFET-embed. en.    :        0.000000000000 Eh       

---------------
SCF CONVERGENCE
---------------

  Last Energy change         ...    1.5376e-10  Tolerance :   1.0000e-08
  Last MAX-Density change    ...    0.0000e+00  Tolerance :   1.0000e-07
  Last RMS-Density change    ...    0.0000e+00  Tolerance :   5.0000e-09
  Last DIIS Error            ...    7.9252e-07  Tolerance :   5.0000e-07

             **** THE GBW FILE WAS UPDATED (/beegfs/scratch/ispackman/PFAS_EPR_calcs/benchmark/JChemEd_CF3_radical/CF3_radical_100.0_degrees_IN-PROGRESS/CF3_radical_100.0_degrees.gbw) ****
             **** DENSITY /beegfs/scratch/ispackman/PFAS_EPR_calcs/benchmark/JChemEd_CF3_radical/CF3_radical_100.0_degrees_IN-PROGRESS/CF3_radical_100.0_degrees.scfp WAS UPDATED ****
             **** ENERGY FILE WAS UPDATED (/beegfs/scratch/ispackman/PFAS_EPR_calcs/benchmark/JChemEd_CF3_radical/CF3_radical_100.0_degrees_IN-PROGRESS/CF3_radical_100.0_degrees.en.tmp) ****
----------------------
UHF SPIN CONTAMINATION
----------------------

Warning: in a DFT calculation there is little theoretical justification to 
         calculate <S**2> as in Hartree-Fock theory. We will do it anyways
         but you should keep in mind that the values have only limited relevance

Expectation value of <S**2>     :     0.752173
Ideal value S*(S+1) for S=0.5   :     0.750000
Deviation                       :     0.002173

             **** THE GBW FILE WAS UPDATED (/beegfs/scratch/ispackman/PFAS_EPR_calcs/benchmark/JChemEd_CF3_radical/CF3_radical_100.0_degrees_IN-PROGRESS/CF3_radical_100.0_degrees.gbw) ****
             **** DENSITY /beegfs/scratch/ispackman/PFAS_EPR_calcs/benchmark/JChemEd_CF3_radical/CF3_radical_100.0_degrees_IN-PROGRESS/CF3_radical_100.0_degrees.scfp WAS UPDATED ****
----------------
ORBITAL ENERGIES
----------------
                 SPIN UP ORBITALS
  NO   OCC          E(Eh)            E(eV) 
   0   1.0000     -24.838012      -675.8767 
   1   1.0000     -24.838010      -675.8766 
   2   1.0000     -24.838003      -675.8764 
   3   1.0000     -10.551707      -287.1266 
   4   1.0000      -1.486229       -40.4424 
   5   1.0000      -1.365282       -37.1512 
   6   1.0000      -1.365277       -37.1511 
   7   1.0000      -0.838380       -22.8135 
   8   1.0000      -0.724082       -19.7033 
   9   1.0000      -0.724074       -19.7030 
  10   1.0000      -0.708281       -19.2733 
  11   1.0000      -0.605968       -16.4892 
  12   1.0000      -0.605962       -16.4891 
  13   1.0000      -0.543010       -14.7760 
  14   1.0000      -0.543006       -14.7759 
  15   1.0000      -0.523249       -14.2383 
  16   1.0000      -0.436245       -11.8708 
  17   0.0000       0.072560         1.9745 
  18   0.0000       0.105344         2.8666 
  19   0.0000       0.105345         2.8666 
  20   0.0000       0.111776         3.0416 
  21   0.0000       0.159726         4.3464 
  22   0.0000       0.159728         4.3464 
  23   0.0000       0.172281         4.6880 
  24   0.0000       0.172282         4.6880 
  25   0.0000       0.190678         5.1886 
  26   0.0000       0.212290         5.7767 
  27   0.0000       0.212296         5.7769 
  28   0.0000       0.240953         6.5567 
  29   0.0000       0.287717         7.8292 
  30   0.0000       0.348116         9.4727 
  31   0.0000       0.348122         9.4729 
  32   0.0000       0.352038         9.5794 
  33   0.0000       0.384566        10.4646 
  34   0.0000       0.384566        10.4646 
  35   0.0000       0.401631        10.9289 
  36   0.0000       0.402688        10.9577 
  37   0.0000       0.402690        10.9578 
  38   0.0000       0.426354        11.6017 
  39   0.0000       0.486558        13.2399 
  40   0.0000       0.486563        13.2400 
  41   0.0000       0.526815        14.3354 
  42   0.0000       0.567657        15.4467 
  43   0.0000       0.625402        17.0181 
  44   0.0000       0.625404        17.0181 
  45   0.0000       0.697524        18.9806 
  46   0.0000       0.697528        18.9807 
  47   0.0000       0.709232        19.2992 
  48   0.0000       0.727479        19.7957 
  49   0.0000       0.734274        19.9806 
  50   0.0000       0.734283        19.9809 
  51   0.0000       0.767698        20.8901 
  52   0.0000       0.794449        21.6180 
  53   0.0000       0.794449        21.6181 
  54   0.0000       0.872132        23.7319 
  55   0.0000       0.901598        24.5337 
  56   0.0000       0.901602        24.5338 
  57   0.0000       0.930599        25.3229 
  58   0.0000       0.971924        26.4474 
  59   0.0000       0.971934        26.4477 
  60   0.0000       1.078040        29.3350 
  61   0.0000       1.078042        29.3350 
  62   0.0000       1.112507        30.2729 
  63   0.0000       1.163159        31.6512 
  64   0.0000       1.163168        31.6514 
  65   0.0000       1.167653        31.7735 
  66   0.0000       1.239302        33.7231 
  67   0.0000       1.249623        34.0040 
  68   0.0000       1.249624        34.0040 
  69   0.0000       1.309902        35.6442 
  70   0.0000       1.309905        35.6443 
  71   0.0000       1.341945        36.5162 
  72   0.0000       1.457280        39.6546 
  73   0.0000       1.457311        39.6554 
  74   0.0000       1.658121        45.1198 
  75   0.0000       2.126798        57.8731 
  76   0.0000       2.168757        59.0149 
  77   0.0000       2.168767        59.0152 
  78   0.0000       2.197647        59.8010 
  79   0.0000       2.214153        60.2502 
  80   0.0000       2.219453        60.3944 
  81   0.0000       2.219469        60.3948 
  82   0.0000       2.328944        63.3738 
  83   0.0000       2.328983        63.3749 
  84   0.0000       2.419194        65.8296 
  85   0.0000       2.464855        67.0721 
  86   0.0000       2.464860        67.0722 
  87   0.0000       2.591490        70.5180 
  88   0.0000       2.591499        70.5183 
  89   0.0000       2.857233        77.7493 
  90   0.0000       2.932381        79.7941 
  91   0.0000       2.932419        79.7952 
  92   0.0000       2.935214        79.8712 
  93   0.0000       3.070333        83.5480 
  94   0.0000       3.182264        86.5938 
  95   0.0000       3.182320        86.5953 
  96   0.0000       3.184075        86.6431 
  97   0.0000       3.293558        89.6223 
  98   0.0000       3.293627        89.6242 
  99   0.0000       3.400860        92.5421 
 100   0.0000       3.400879        92.5426 
 101   0.0000       3.441359        93.6442 
 102   0.0000       3.627968        98.7220 
 103   0.0000       3.627969        98.7220 
 104   0.0000       3.696562       100.5886 
 105   0.0000       3.829743       104.2126 
 106   0.0000       3.931071       106.9699 
 107   0.0000       3.959905       107.7545 
 108   0.0000       3.959971       107.7563 
 109   0.0000       4.101672       111.6122 
 110   0.0000       4.101685       111.6125 
 111   0.0000       4.202091       114.3447 
 112   0.0000       4.284143       116.5775 
 113   0.0000       4.284194       116.5788 
 114   0.0000       5.392263       146.7309 
 115   0.0000       5.392289       146.7316 
 116   0.0000       5.468448       148.8040 
 117   0.0000       6.912459       188.0976 
 118   0.0000       6.912476       188.0980 
 119   0.0000       6.915587       188.1827 
 120   0.0000       6.925218       188.4448 
 121   0.0000       6.925268       188.4461 
 122   0.0000       6.930990       188.6018 
 123   0.0000       6.935667       188.7291 
 124   0.0000       6.935718       188.7305 
 125   0.0000       6.951578       189.1620 
 126   0.0000       7.064531       192.2357 
 127   0.0000       7.064620       192.2381 
 128   0.0000       7.160391       194.8441 
 129   0.0000       7.251346       197.3192 
 130   0.0000       7.251352       197.3193 
 131   0.0000       7.261923       197.6070 
 132   0.0000       7.484862       203.6734 
 133   0.0000       7.503316       204.1756 
 134   0.0000       7.579505       206.2488 
 135   0.0000       7.579513       206.2490 
 136   0.0000       7.779910       211.7021 
 137   0.0000       7.779991       211.7043 
 138   0.0000       8.518505       231.8003 
 139   0.0000       8.518534       231.8011 
 140   0.0000       8.577487       233.4053 
 141   0.0000       8.591896       233.7974 
 142   0.0000       8.614823       234.4213 
 143   0.0000       8.614913       234.4237 
 144   0.0000       8.824508       240.1271 
 145   0.0000       8.832948       240.3567 
 146   0.0000       8.832968       240.3573 
 147   0.0000       9.023921       245.5534 
 148   0.0000       9.132569       248.5098 
 149   0.0000       9.132628       248.5114 
 150   0.0000       9.253262       251.7941 
 151   0.0000       9.403000       255.8686 
 152   0.0000       9.403049       255.8700 
 153   0.0000      22.683432       617.2476 
 154   0.0000      57.355016      1560.7093 
 155   0.0000      57.355051      1560.7103 
 156   0.0000      57.423399      1562.5701 

                 SPIN DOWN ORBITALS
  NO   OCC          E(Eh)            E(eV) 
   0   1.0000     -24.835167      -675.7993 
   1   1.0000     -24.835163      -675.7992 
   2   1.0000     -24.835150      -675.7988 
   3   1.0000     -10.538809      -286.7756 
   4   1.0000      -1.477406       -40.2023 
   5   1.0000      -1.356644       -36.9162 
   6   1.0000      -1.356638       -36.9160 
   7   1.0000      -0.820261       -22.3204 
   8   1.0000      -0.713561       -19.4170 
   9   1.0000      -0.713553       -19.4168 
  10   1.0000      -0.667258       -18.1570 
  11   1.0000      -0.594267       -16.1708 
  12   1.0000      -0.594261       -16.1707 
  13   1.0000      -0.535424       -14.5696 
  14   1.0000      -0.535419       -14.5695 
  15   1.0000      -0.519954       -14.1487 
  16   0.0000      -0.084757        -2.3063 
  17   0.0000       0.082866         2.2549 
  18   0.0000       0.108523         2.9530 
  19   0.0000       0.108523         2.9531 
  20   0.0000       0.126420         3.4401 
  21   0.0000       0.164741         4.4828 
  22   0.0000       0.164741         4.4828 
  23   0.0000       0.177869         4.8401 
  24   0.0000       0.177869         4.8401 
  25   0.0000       0.201507         5.4833 
  26   0.0000       0.235168         6.3993 
  27   0.0000       0.235170         6.3993 
  28   0.0000       0.241717         6.5774 
  29   0.0000       0.293449         7.9851 
  30   0.0000       0.364397         9.9157 
  31   0.0000       0.368237        10.0202 
  32   0.0000       0.368242        10.0204 
  33   0.0000       0.385779        10.4976 
  34   0.0000       0.385779        10.4976 
  35   0.0000       0.405509        11.0344 
  36   0.0000       0.405509        11.0345 
  37   0.0000       0.409664        11.1475 
  38   0.0000       0.436102        11.8669 
  39   0.0000       0.488073        13.2811 
  40   0.0000       0.488078        13.2813 
  41   0.0000       0.530522        14.4362 
  42   0.0000       0.573436        15.6040 
  43   0.0000       0.627317        17.0702 
  44   0.0000       0.627323        17.0703 
  45   0.0000       0.698884        19.0176 
  46   0.0000       0.698887        19.0177 
  47   0.0000       0.709499        19.3064 
  48   0.0000       0.736865        20.0511 
  49   0.0000       0.736876        20.0514 
  50   0.0000       0.738204        20.0875 
  51   0.0000       0.766908        20.8686 
  52   0.0000       0.796369        21.6703 
  53   0.0000       0.796369        21.6703 
  54   0.0000       0.873260        23.7626 
  55   0.0000       0.904066        24.6009 
  56   0.0000       0.904070        24.6010 
  57   0.0000       0.945225        25.7209 
  58   0.0000       0.979483        26.6531 
  59   0.0000       0.979495        26.6534 
  60   0.0000       1.081235        29.4219 
  61   0.0000       1.081240        29.4220 
  62   0.0000       1.116934        30.3933 
  63   0.0000       1.165199        31.7067 
  64   0.0000       1.165214        31.7071 
  65   0.0000       1.180887        32.1336 
  66   0.0000       1.241534        33.7839 
  67   0.0000       1.260576        34.3020 
  68   0.0000       1.260580        34.3021 
  69   0.0000       1.317072        35.8393 
  70   0.0000       1.317095        35.8400 
  71   0.0000       1.342320        36.5264 
  72   0.0000       1.459177        39.7062 
  73   0.0000       1.459208        39.7071 
  74   0.0000       1.712981        46.6126 
  75   0.0000       2.136160        58.1279 
  76   0.0000       2.178330        59.2754 
  77   0.0000       2.178353        59.2760 
  78   0.0000       2.201057        59.8938 
  79   0.0000       2.224649        60.5358 
  80   0.0000       2.227383        60.6102 
  81   0.0000       2.227394        60.6105 
  82   0.0000       2.333721        63.5038 
  83   0.0000       2.333758        63.5048 
  84   0.0000       2.420521        65.8657 
  85   0.0000       2.471288        67.2472 
  86   0.0000       2.471290        67.2472 
  87   0.0000       2.616374        71.1952 
  88   0.0000       2.616397        71.1958 
  89   0.0000       2.864684        77.9520 
  90   0.0000       2.937225        79.9260 
  91   0.0000       2.937257        79.9268 
  92   0.0000       2.940145        80.0054 
  93   0.0000       3.088460        84.0413 
  94   0.0000       3.196358        86.9773 
  95   0.0000       3.196404        86.9786 
  96   0.0000       3.236998        88.0832 
  97   0.0000       3.321248        90.3758 
  98   0.0000       3.321302        90.3772 
  99   0.0000       3.445228        93.7494 
 100   0.0000       3.445228        93.7494 
 101   0.0000       3.450098        93.8820 
 102   0.0000       3.646126        99.2161 
 103   0.0000       3.646141        99.2165 
 104   0.0000       3.731897       101.5501 
 105   0.0000       3.839033       104.4654 
 106   0.0000       3.938010       107.1587 
 107   0.0000       3.989007       108.5464 
 108   0.0000       3.989054       108.5477 
 109   0.0000       4.109522       111.8258 
 110   0.0000       4.109527       111.8259 
 111   0.0000       4.214495       114.6822 
 112   0.0000       4.294624       116.8626 
 113   0.0000       4.294678       116.8641 
 114   0.0000       5.401687       146.9874 
 115   0.0000       5.401707       146.9879 
 116   0.0000       5.481138       149.1493 
 117   0.0000       6.918127       188.2518 
 118   0.0000       6.918147       188.2523 
 119   0.0000       6.920795       188.3244 
 120   0.0000       6.928325       188.5293 
 121   0.0000       6.928368       188.5305 
 122   0.0000       6.936415       188.7495 
 123   0.0000       6.941059       188.8758 
 124   0.0000       6.941105       188.8771 
 125   0.0000       6.953962       189.2269 
 126   0.0000       7.069954       192.3832 
 127   0.0000       7.070039       192.3855 
 128   0.0000       7.164616       194.9591 
 129   0.0000       7.259117       197.5306 
 130   0.0000       7.259121       197.5307 
 131   0.0000       7.268390       197.7830 
 132   0.0000       7.494432       203.9339 
 133   0.0000       7.511403       204.3957 
 134   0.0000       7.586139       206.4293 
 135   0.0000       7.586141       206.4294 
 136   0.0000       7.787791       211.9166 
 137   0.0000       7.787878       211.9189 
 138   0.0000       8.526122       232.0076 
 139   0.0000       8.526149       232.0083 
 140   0.0000       8.585325       233.6186 
 141   0.0000       8.601936       234.0706 
 142   0.0000       8.624453       234.6833 
 143   0.0000       8.624542       234.6857 
 144   0.0000       8.829504       240.2630 
 145   0.0000       8.842410       240.6142 
 146   0.0000       8.842433       240.6148 
 147   0.0000       9.032840       245.7961 
 148   0.0000       9.137347       248.6398 
 149   0.0000       9.137397       248.6412 
 150   0.0000       9.258974       251.9495 
 151   0.0000       9.409729       256.0517 
 152   0.0000       9.409778       256.0531 
 153   0.0000      22.706588       617.8777 
 154   0.0000      57.357831      1560.7859 
 155   0.0000      57.357867      1560.7869 
 156   0.0000      57.426243      1562.6475 

                    ********************************
                    * MULLIKEN POPULATION ANALYSIS *
                    ********************************

--------------------------------------------
MULLIKEN ATOMIC CHARGES AND SPIN POPULATIONS
--------------------------------------------
   0 C :    0.567647    0.781104
   1 F :   -0.189185    0.072991
   2 F :   -0.189230    0.072953
   3 F :   -0.189231    0.072952
Sum of atomic charges         :    0.0000000
Sum of atomic spin populations:    1.0000000

-----------------------------------------------------
MULLIKEN REDUCED ORBITAL CHARGES AND SPIN POPULATIONS
-----------------------------------------------------
CHARGE
  0 C s       :     3.186802  s :     3.186802
      pz      :     0.829551  p :     1.910516
      px      :     0.540473
      py      :     0.540492
      dz2     :     0.060879  d :     0.291591
      dxz     :     0.046749
      dyz     :     0.046761
      dx2y2   :     0.068600
      dxy     :     0.068601
      f0      :     0.001474  f :     0.043444
      f+1     :     0.006798
      f-1     :     0.006799
      f+2     :     0.007453
      f-2     :     0.007457
      f+3     :     0.003961
      f-3     :     0.009501
  1 F s       :     3.953194  s :     3.953194
      pz      :     1.729494  p :     5.226456
      px      :     1.569252
      py      :     1.927710
      dz2     :     0.000668  d :     0.008687
      dxz     :     0.005280
      dyz     :     0.001668
      dx2y2   :     0.004306
      dxy     :    -0.003236
      f0      :     0.000084  f :     0.000848
      f+1     :     0.000177
      f-1     :     0.000006
      f+2     :     0.000222
      f-2     :     0.000075
      f+3     :     0.000153
      f-3     :     0.000131
  2 F s       :     3.953238  s :     3.953238
      pz      :     1.729468  p :     5.226477
      px      :     1.838110
      py      :     1.658898
      dz2     :     0.000665  d :     0.008667
      dxz     :     0.002569
      dyz     :     0.004374
      dx2y2   :    -0.001353
      dxy     :     0.002412
      f0      :     0.000084  f :     0.000848
      f+1     :     0.000049
      f-1     :     0.000134
      f+2     :     0.000112
      f-2     :     0.000185
      f+3     :     0.000153
      f-3     :     0.000131
  3 F s       :     3.953239  s :     3.953239
      pz      :     1.729468  p :     5.226477
      px      :     1.838110
      py      :     1.658899
      dz2     :     0.000665  d :     0.008667
      dxz     :     0.002569
      dyz     :     0.004374
      dx2y2   :    -0.001353
      dxy     :     0.002412
      f0      :     0.000084  f :     0.000848
      f+1     :     0.000049
      f-1     :     0.000134
      f+2     :     0.000112
      f-2     :     0.000185
      f+3     :     0.000153
      f-3     :     0.000131

SPIN
  0 C s       :     0.276997  s :     0.276997
      pz      :     0.469400  p :     0.494968
      px      :     0.012777
      py      :     0.012791
      dz2     :     0.014636  d :     0.009880
      dxz     :    -0.001456
      dyz     :    -0.001456
      dx2y2   :    -0.000924
      dxy     :    -0.000920
      f0      :    -0.000029  f :    -0.000741
      f+1     :    -0.000331
      f-1     :    -0.000330
      f+2     :    -0.000205
      f-2     :    -0.000205
      f+3     :     0.000319
      f-3     :     0.000041
  1 F s       :     0.003184  s :     0.003184
      pz      :     0.072418  p :     0.068299
      px      :    -0.002895
      py      :    -0.001223
      dz2     :    -0.000097  d :     0.001478
      dxz     :     0.000875
      dyz     :    -0.000016
      dx2y2   :     0.000815
      dxy     :    -0.000099
      f0      :     0.000002  f :     0.000030
      f+1     :     0.000016
      f-1     :     0.000001
      f+2     :     0.000002
      f-2     :     0.000001
      f+3     :     0.000008
      f-3     :    -0.000000
  2 F s       :     0.003179  s :     0.003179
      pz      :     0.072373  p :     0.068262
      px      :    -0.001634
      py      :    -0.002477
      dz2     :    -0.000097  d :     0.001482
      dxz     :     0.000208
      dyz     :     0.000652
      dx2y2   :     0.000130
      dxy     :     0.000589
      f0      :     0.000002  f :     0.000030
      f+1     :     0.000005
      f-1     :     0.000012
      f+2     :     0.000002
      f-2     :     0.000002
      f+3     :     0.000008
      f-3     :    -0.000000
  3 F s       :     0.003179  s :     0.003179
      pz      :     0.072373  p :     0.068262
      px      :    -0.001634
      py      :    -0.002477
      dz2     :    -0.000097  d :     0.001482
      dxz     :     0.000208
      dyz     :     0.000652
      dx2y2   :     0.000130
      dxy     :     0.000589
      f0      :     0.000002  f :     0.000030
      f+1     :     0.000005
      f-1     :     0.000012
      f+2     :     0.000002
      f-2     :     0.000002
      f+3     :     0.000008
      f-3     :    -0.000000


                     *******************************
                     * LOEWDIN POPULATION ANALYSIS *
                     *******************************

-------------------------------------------
LOEWDIN ATOMIC CHARGES AND SPIN POPULATIONS
-------------------------------------------
   0 C :   -0.342163    0.624957
   1 F :    0.114047    0.125030
   2 F :    0.114058    0.125006
   3 F :    0.114058    0.125006

----------------------------------------------------
LOEWDIN REDUCED ORBITAL CHARGES AND SPIN POPULATIONS
----------------------------------------------------
CHARGE
  0 C s       :     2.709232  s :     2.709232
      pz      :     0.804683  p :     2.163782
      px      :     0.679535
      py      :     0.679564
      dz2     :     0.172533  d :     1.188620
      dxz     :     0.213985
      dyz     :     0.213994
      dx2y2   :     0.294054
      dxy     :     0.294054
      f0      :     0.016191  f :     0.280529
      f+1     :     0.033377
      f-1     :     0.033377
      f+2     :     0.055212
      f-2     :     0.055215
      f+3     :     0.035514
      f-3     :     0.051643
  1 F s       :     3.552040  s :     3.552040
      pz      :     1.673575  p :     5.095803
      px      :     1.634085
      py      :     1.788144
      dz2     :     0.040449  d :     0.236088
      dxz     :     0.066446
      dyz     :     0.011493
      dx2y2   :     0.043484
      dxy     :     0.074217
      f0      :     0.000174  f :     0.002021
      f+1     :     0.000513
      f-1     :     0.000005
      f+2     :     0.000488
      f-2     :     0.000170
      f+3     :     0.000314
      f-3     :     0.000359
  2 F s       :     3.552039  s :     3.552039
      pz      :     1.673585  p :     5.095800
      px      :     1.749622
      py      :     1.672592
      dz2     :     0.040448  d :     0.236082
      dxz     :     0.025230
      dyz     :     0.052706
      dx2y2   :     0.066532
      dxy     :     0.051166
      f0      :     0.000174  f :     0.002021
      f+1     :     0.000132
      f-1     :     0.000386
      f+2     :     0.000249
      f-2     :     0.000408
      f+3     :     0.000314
      f-3     :     0.000359
  3 F s       :     3.552039  s :     3.552039
      pz      :     1.673585  p :     5.095800
      px      :     1.749622
      py      :     1.672592
      dz2     :     0.040448  d :     0.236082
      dxz     :     0.025230
      dyz     :     0.052706
      dx2y2   :     0.066532
      dxy     :     0.051166
      f0      :     0.000174  f :     0.002021
      f+1     :     0.000132
      f-1     :     0.000386
      f+2     :     0.000249
      f-2     :     0.000408
      f+3     :     0.000314
      f-3     :     0.000359

SPIN
  0 C s       :     0.158396  s :     0.158396
      pz      :     0.398227  p :     0.409800
      px      :     0.005782
      py      :     0.005791
      dz2     :     0.057189  d :     0.048585
      dxz     :    -0.003656
      dyz     :    -0.003657
      dx2y2   :    -0.000647
      dxy     :    -0.000644
      f0      :     0.001567  f :     0.008176
      f+1     :    -0.000221
      f-1     :    -0.000220
      f+2     :    -0.000181
      f-2     :    -0.000182
      f+3     :     0.007410
      f-3     :     0.000003
  1 F s       :     0.014823  s :     0.014823
      pz      :     0.076279  p :     0.081411
      px      :     0.005779
      py      :    -0.000648
      dz2     :     0.010519  d :     0.028481
      dxz     :     0.017112
      dyz     :    -0.000199
      dx2y2   :     0.001052
      dxy     :    -0.000004
      f0      :     0.000001  f :     0.000316
      f+1     :     0.000249
      f-1     :     0.000001
      f+2     :     0.000033
      f-2     :     0.000001
      f+3     :     0.000027
      f-3     :     0.000003
  2 F s       :     0.014823  s :     0.014823
      pz      :     0.076248  p :     0.081386
      px      :     0.000962
      py      :     0.004175
      dz2     :     0.010520  d :     0.028482
      dxz     :     0.004129
      dyz     :     0.012785
      dx2y2   :     0.000260
      dxy     :     0.000788
      f0      :     0.000001  f :     0.000316
      f+1     :     0.000063
      f-1     :     0.000187
      f+2     :     0.000009
      f-2     :     0.000025
      f+3     :     0.000027
      f-3     :     0.000003
  3 F s       :     0.014823  s :     0.014823
      pz      :     0.076248  p :     0.081386
      px      :     0.000962
      py      :     0.004175
      dz2     :     0.010520  d :     0.028482
      dxz     :     0.004129
      dyz     :     0.012785
      dx2y2   :     0.000260
      dxy     :     0.000788
      f0      :     0.000001  f :     0.000316
      f+1     :     0.000063
      f-1     :     0.000187
      f+2     :     0.000009
      f-2     :     0.000025
      f+3     :     0.000027
      f-3     :     0.000003


                      *****************************
                      * MAYER POPULATION ANALYSIS *
                      *****************************

  NA   - Mulliken gross atomic population
  ZA   - Total nuclear charge
  QA   - Mulliken gross atomic charge
  VA   - Mayer's total valence
  BVA  - Mayer's bonded valence
  FA   - Mayer's free valence

  ATOM       NA         ZA         QA         VA         BVA        FA
  0 C      5.4324     6.0000     0.5676     3.7964     3.1783     0.6181
  1 F      9.1892     9.0000    -0.1892     1.0299     1.0257     0.0042
  2 F      9.1892     9.0000    -0.1892     1.0296     1.0253     0.0042
  3 F      9.1892     9.0000    -0.1892     1.0296     1.0253     0.0042

  Mayer bond orders larger than 0.100000
B(  0-C ,  1-F ) :   1.0596 B(  0-C ,  2-F ) :   1.0594 B(  0-C ,  3-F ) :   1.0594 


-------
TIMINGS
-------

Total SCF time: 0 days 0 hours 0 min 13 sec 

Total time                  ....      13.494 sec
Sum of individual times     ....      12.636 sec  ( 93.6%)

Fock matrix formation       ....      10.676 sec  ( 79.1%)
  Split-RI-J                ....       3.120 sec  ( 29.2% of F)
  Chain of spheres X        ....       2.934 sec  ( 27.5% of F)
  XC integration            ....       1.895 sec  ( 17.7% of F)
    Basis function eval.    ....       0.112 sec  (  5.9% of XC)
    Density eval.           ....       0.145 sec  (  7.6% of XC)
    XC-Functional eval.     ....       0.063 sec  (  3.3% of XC)
    XC-Potential eval.      ....       0.293 sec  ( 15.4% of XC)
Diagonalization             ....       0.314 sec  (  2.3%)
Density matrix formation    ....       0.016 sec  (  0.1%)
Population analysis         ....       0.116 sec  (  0.9%)
Initial guess               ....       0.476 sec  (  3.5%)
Orbital Transformation      ....       0.000 sec  (  0.0%)
Orbital Orthonormalization  ....       0.000 sec  (  0.0%)
DIIS solution               ....       0.433 sec  (  3.2%)
Grid generation             ....       0.605 sec  (  4.5%)

Maximum memory used throughout the entire SCF-calculation: 63.2 MB


-------------------------------------------------------------------------------
                          DFT DISPERSION CORRECTION                            
                                                                               
                              DFTD3 V3.1  Rev 1                                
                              USING zero damping                               
-------------------------------------------------------------------------------
The omegaB97X-D3 functional is recognized. Fit by Chai et al.
Active option DFTDOPT                   ...         3   

molecular C6(AA) [au] = 165.544271 


            DFT-D V3
 parameters
 s6 scaling factor         :     1.0000 
 rs6 scaling factor        :     1.2810 
 s8 scaling factor         :     1.0000 
 rs8 scaling factor        :     1.0940 
 Damping factor alpha6     :    14.0000 
 Damping factor alpha8     :    16.0000 
 ad hoc parameters k1-k3   :    16.0000     1.3333    -4.0000 

 Edisp/kcal,au: -0.029002645224  -0.000046218652 
 E6   /kcal   :  -0.003677730 
 E8   /kcal   :  -0.025324915 
 % E8         :  87.319329475 

-------------------------   ----------------
Dispersion correction           -0.000046219
-------------------------   ----------------


-------------------------   --------------------
FINAL SINGLE POINT ENERGY      -337.596484742391
-------------------------   --------------------



           ************************************************************
           *        Program running with 18 parallel MPI-processes    *
           *              working on a common directory               *
           ************************************************************
------------------------------------------------------------------------------
                         ORCA SCF GRADIENT CALCULATION
------------------------------------------------------------------------------

 ... reading COSX grid (gridx3)
Gradient of the Kohn-Sham DFT energy:
Kohn-Sham wavefunction type      ... UKS
Hartree-Fock exchange scaling    ...    0.196
Number of operators              ...    2
Number of atoms                  ...    4
Basis set dimensions             ...  157
Integral neglect threshold       ... 2.5e-11
Integral primitive cutoff        ... 2.5e-12
SHARK Integral package           ... ON

Nuc. rep. gradient       (SHARK) ... done (  0.0 sec)
HCore & Overlap gradient (SHARK) ... done (  0.0 sec)
RI-J gradient            (SHARK) ... done (  0.6 sec)
COSX-gradient                    ... done (  0.5 sec)
Exchange-correlation gradient    ... done
Dispersion correction            ... done

------------------
CARTESIAN GRADIENT
------------------

WARNING: THERE ARE 3 CONSTRAINED CARTESIAN COORDINATES
   1   C   :   -0.000158559    0.000000079    0.110494313
   2   F   :   -0.059224747    0.000000112   -0.037099831
   3   F   :    0.029835518   -0.051002163   -0.036486674
   4   F   :    0.029835797    0.051002308   -0.036486940

Difference to translation invariance:
           :    0.0002880096    0.0000003363    0.0004208687

Difference to rotation invariance:
           :    0.0000008033    0.0008298701    0.0000006187

Norm of the cartesian gradient     ...    0.1635186527
RMS gradient                       ...    0.0472037691
MAX gradient                       ...    0.1104943134

-------
TIMINGS
-------

Total SCF gradient time            ...        1.636 sec

One electron gradient       ....       0.014 sec  (  0.8%)
RI-J Coulomb gradient       ....       0.615 sec  ( 37.6%)
COSX gradient               ....       0.459 sec  ( 28.0%)
XC gradient                 ....       0.169 sec  ( 10.4%)

Maximum memory used throughout the entire SCFGRAD-calculation: 37.2 MB
------------------------------------------------------------------------------
                         ORCA GEOMETRY RELAXATION STEP
------------------------------------------------------------------------------

Reading the OPT-File                    .... done
Getting information on internals        .... done
Copying old internal coords+grads       .... done
Making the new internal coordinates     .... (new redundants).... done
Validating the new internal coordinates .... (new redundants).... done
Calculating the B-matrix                .... done
Calculating the G,G- and P matrices     .... done
Transforming gradient to internals      .... done
Projecting the internal gradient        .... done
Number of atoms                         ....   4
Number of internal coordinates          ....   7
Current Energy                          ....  -337.596484742 Eh
Current gradient norm                   ....     0.163518653 Eh/bohr
Maximum allowed component of the step   ....  0.300
Current trust radius                    ....  0.300
Evaluating the initial hessian          ....  (Almloef) done
Projecting the Hessian                  .... done
Forming the augmented Hessian           .... done
Diagonalizing the augmented Hessian     .... done
Last element of RFO vector              ....  0.996134450
Lowest eigenvalues of augmented Hessian:
 -0.005367598  0.684895726  0.684895726  0.690263323 1000.000000000
Length of the computed step             ....  0.088182536
The final length of the internal step   ....  0.088182536
Converting the step to cartesian space:
 Initial RMS(Int)=    0.0333298657
Transforming coordinates:
 Iter   0:  RMS(Cart)=    0.0232867549 RMS(Int)=    0.0333298658
 Iter   1:  RMS(Cart)=    0.0000000002 RMS(Int)=    0.0000000003
Imposing constraints:
 Iter   0:  RMS(Cart)=    0.0000000008 RMS(Int)=    0.0000000010
CONVERGED
done
Storing new coordinates                 .... done

                                .--------------------.
          ----------------------|Geometry convergence|-------------------------
          Item                value                   Tolerance       Converged
          ---------------------------------------------------------------------
          RMS gradient        0.0230063839            0.0001000000      NO
          MAX gradient        0.0351976926            0.0003000000      NO
          RMS step            0.0333298657            0.0020000000      NO
          MAX step            0.0509916889            0.0040000000      NO
          ........................................................
          Max(Bonds)      0.0270      Max(Angles)    0.00
          Max(Dihed)        0.00      Max(Improp)    0.00
          ---------------------------------------------------------------------

The optimization has not yet converged - more geometry cycles are needed


    ---------------------------------------------------------------------------
                         Redundant Internal Coordinates
                            (Angstroem and degrees)

        Definition                    Value    dE/dq     Step     New-Value
    ----------------------------------------------------------------------------
     1. B(F   1,C   0)                1.3150 -0.035198  0.0270    1.3420   
     2. B(F   2,C   0)                1.3150 -0.035115  0.0269    1.3419   
     3. B(F   3,C   0)                1.3150 -0.035115  0.0269    1.3419   
     4. A(F   2,C   0,F   3)          100.00 -0.102963   -0.00    100.00 C 
     5. A(F   1,C   0,F   2)          100.00 -0.046564   -0.00    100.00 C 
     6. A(F   1,C   0,F   3)          100.00 -0.046564    0.00    100.00 C 
     7. I(F   1,F   3,F   2,C   0)     74.33  0.091310    0.00     74.33   
    ----------------------------------------------------------------------------

         *************************************************************
         *                GEOMETRY OPTIMIZATION CYCLE   2            *
         *************************************************************
---------------------------------
CARTESIAN COORDINATES (ANGSTROEM)
---------------------------------
  C     -0.000019    0.000000    0.009425
  F      1.187042    0.000000   -0.616519
  F     -0.593511    1.027971   -0.616509
  F     -0.593511   -1.027971   -0.616509

----------------------------
CARTESIAN COORDINATES (A.U.)
----------------------------
  NO LB      ZA    FRAG     MASS         X           Y           Z
   0 C     6.0000    0    12.011   -0.000036    0.000000    0.017811
   1 F     9.0000    0    18.998    2.243184    0.000000   -1.165053
   2 F     9.0000    0    18.998   -1.121574    1.942583   -1.165034
   3 F     9.0000    0    18.998   -1.121574   -1.942583   -1.165034

--------------------------------
INTERNAL COORDINATES (ANGSTROEM)
--------------------------------
 C      0   0   0     0.000000000000     0.00000000     0.00000000
 F      1   0   0     1.341983639550     0.00000000     0.00000000
 F      1   2   0     1.341920503396    99.99999996     0.00000000
 F      1   2   3     1.341920552586    99.99999996   102.13045772

---------------------------
INTERNAL COORDINATES (A.U.)
---------------------------
 C      0   0   0     0.000000000000     0.00000000     0.00000000
 F      1   0   0     2.535981554952     0.00000000     0.00000000
 F      1   2   0     2.535862244912    99.99999996     0.00000000
 F      1   2   3     2.535862337869    99.99999996   102.13045772



           ************************************************************
           *        Program running with 18 parallel MPI-processes    *
           *              working on a common directory               *
           ************************************************************
------------------------------------------------------------------------------
                   ___                                                        
                  /   \      - P O W E R E D   B Y -                         
                 /     \                                                     
                 |  |  |   _    _      __       _____    __    __             
                 |  |  |  | |  | |    /  \     |  _  \  |  |  /  |          
                  \  \/   | |  | |   /    \    | | | |  |  | /  /          
                 / \  \   | |__| |  /  /\  \   | |_| |  |  |/  /          
                |  |  |   |  __  | /  /__\  \  |    /   |      \           
                |  |  |   | |  | | |   __   |  |    \   |  |\   \          
                \     /   | |  | | |  |  |  |  | |\  \  |  | \   \       
                 \___/    |_|  |_| |__|  |__|  |_| \__\ |__|  \__/        
                                                                              
                      - O R C A' S   B I G   F R I E N D -                    
                                      &                                       
                       - I N T E G R A L  F E E D E R -                       
                                                                              
 v1 FN, 2020, v2 2021                                                         
------------------------------------------------------------------------------


Reading SHARK input file /beegfs/scratch/ispackman/PFAS_EPR_calcs/benchmark/JChemEd_CF3_radical/CF3_radical_100.0_degrees_IN-PROGRESS/CF3_radical_100.0_degrees.SHARKINP.tmp ... ok
----------------------
SHARK INTEGRAL PACKAGE
----------------------

Number of atoms                             ...      4
Number of basis functions                   ...    157
Number of shells                            ...     55
Maximum angular momentum                    ...      3
Integral batch strategy                     ... SHARK/LIBINT Hybrid
RI-J (if used) integral strategy            ... SPLIT-RIJ (Revised 2003 algorithm where possible)
Printlevel                                  ...      1
Contraction scheme used                     ... SEGMENTED contraction
Coulomb Range Separation                    ... NOT USED
Exchange Range Separation                   ... Long Range
   Mu parameter                             ...  0.250000
   Scaling (regular/separated)              ...  0.195728  0.804272
Finite Nucleus Model                        ... NOT USED
Auxiliary Coulomb fitting basis             ... AVAILABLE
   # of basis functions in Aux-J            ...    196
   # of shells in Aux-J                     ...     60
   Maximum angular momentum in Aux-J        ...      4
Auxiliary J/K fitting basis                 ... NOT available
Auxiliary Correlation fitting basis         ... NOT available
Auxiliary 'external' fitting basis          ... NOT available
Integral threshold                          ...     2.500000e-11
Primitive cut-off                           ...     2.500000e-12
Primitive pair pre-selection threshold      ...     2.500000e-12

Calculating pre-screening integrals         ... done (  0.0 sec) Dimension = 55
Organizing shell pair data                  ... done (  0.0 sec)
Shell pair information
Total number of shell pairs                 ...      1540
Shell pairs after pre-screening             ...      1504
Total number of primitive shell pairs       ...      4274
Primitive shell pairs kept                  ...      3539
          la=0 lb=0:    282 shell pairs
          la=1 lb=0:    354 shell pairs
          la=1 lb=1:    120 shell pairs
          la=2 lb=0:    276 shell pairs
          la=2 lb=1:    180 shell pairs
          la=2 lb=2:     78 shell pairs
          la=3 lb=0:     96 shell pairs
          la=3 lb=1:     60 shell pairs
          la=3 lb=2:     48 shell pairs
          la=3 lb=3:     10 shell pairs

Calculating one electron integrals          ... done (  0.0 sec)
Calculating RI/J V-Matrix + Cholesky decomp.... done (  0.1 sec)
Calculating Nuclear repulsion               ... done (  0.0 sec) ENN=    126.427196318954 Eh

SHARK setup successfully completed in   0.3 seconds

Maximum memory used throughout the entire GTOINT-calculation: 15.2 MB


           ************************************************************
           *        Program running with 18 parallel MPI-processes    *
           *              working on a common directory               *
           ************************************************************

Diagonalization of the overlap matrix:
Smallest eigenvalue                        ... 4.067e-04
Time for diagonalization                   ...    0.008 sec
Threshold for overlap eigenvalues          ... 1.000e-08
Number of eigenvalues below threshold      ... 0
Time for construction of square roots      ...    0.027 sec
Total time needed                          ...    0.036 sec

-------------------
DFT GRID GENERATION
-------------------

General Integration Accuracy     IntAcc      ... 4.388
Radial Grid Type                 RadialGrid  ... OptM3 with GC (2021)
Angular Grid (max. ang.)         AngularGrid ... 4 (Lebedev-302)
Angular grid pruning method      GridPruning ... 4 (adaptive)
Weight generation scheme         WeightScheme... Becke
Basis function cutoff            BFCut       ... 1.0000e-11
Integration weight cutoff        WCut        ... 1.0000e-14
Angular grids for H and He will be reduced by one unit
Partially contracted basis set               ... off
Rotationally invariant grid construction     ... off

Total number of grid points                  ...    25784
Total number of batches                      ...      405
Average number of points per batch           ...       63
Average number of grid points per atom       ...     6446
Time for grid setup =    0.161 sec

--------------------
COSX GRID GENERATION
--------------------

GRIDX 1
-------
General Integration Accuracy     IntAcc      ... 3.816
Radial Grid Type                 RadialGrid  ... OptM3 with GC (2021)
Angular Grid (max. ang.)         AngularGrid ... 1 (Lebedev-50)
Angular grid pruning method      GridPruning ... 4 (adaptive)
Weight generation scheme         WeightScheme... Becke
Basis function cutoff            BFCut       ... 1.0000e-11
Integration weight cutoff        WCut        ... 1.0000e-14
Angular grids for H and He will be reduced by one unit
Partially contracted basis set               ... on
Rotationally invariant grid construction     ... off

Total number of grid points                  ...     3272
Total number of batches                      ...       53
Average number of points per batch           ...       61
Average number of grid points per atom       ...      818
UseSFitting                                  ... on

GRIDX 2
-------
General Integration Accuracy     IntAcc      ... 4.020
Radial Grid Type                 RadialGrid  ... OptM3 with GC (2021)
Angular Grid (max. ang.)         AngularGrid ... 2 (Lebedev-110)
Angular grid pruning method      GridPruning ... 4 (adaptive)
Weight generation scheme         WeightScheme... Becke
Basis function cutoff            BFCut       ... 1.0000e-11
Integration weight cutoff        WCut        ... 1.0000e-14
Angular grids for H and He will be reduced by one unit
Partially contracted basis set               ... on
Rotationally invariant grid construction     ... off

Total number of grid points                  ...     9124
Total number of batches                      ...      144
Average number of points per batch           ...       63
Average number of grid points per atom       ...     2281
UseSFitting                                  ... on

GRIDX 3
-------
General Integration Accuracy     IntAcc      ... 4.338
Radial Grid Type                 RadialGrid  ... OptM3 with GC (2021)
Angular Grid (max. ang.)         AngularGrid ... 3 (Lebedev-194)
Angular grid pruning method      GridPruning ... 4 (adaptive)
Weight generation scheme         WeightScheme... Becke
Basis function cutoff            BFCut       ... 1.0000e-11
Integration weight cutoff        WCut        ... 1.0000e-14
Angular grids for H and He will be reduced by one unit
Partially contracted basis set               ... on
Rotationally invariant grid construction     ... off

Total number of grid points                  ...    19680
Total number of batches                      ...      309
Average number of points per batch           ...       63
Average number of grid points per atom       ...     4920
UseSFitting                                  ... on

Time for X-Grid setup             =    0.363 sec

--------------
[...]
  VA   - Mayer's total valence
  BVA  - Mayer's bonded valence
  FA   - Mayer's free valence

  ATOM       NA         ZA         QA         VA         BVA        FA
  0 C      5.4609     6.0000     0.5391     3.7845     3.1762     0.6083
  1 F      9.1797     9.0000    -0.1797     1.0398     1.0349     0.0049
  2 F      9.1797     9.0000    -0.1797     1.0396     1.0347     0.0049
  3 F      9.1797     9.0000    -0.1797     1.0396     1.0347     0.0049

  Mayer bond orders larger than 0.100000
B(  0-C ,  1-F ) :   1.0588 B(  0-C ,  2-F ) :   1.0587 B(  0-C ,  3-F ) :   1.0587 


-------
TIMINGS
-------

Total SCF time: 0 days 0 hours 0 min 3 sec 

Total time                  ....       3.069 sec
Sum of individual times     ....       2.512 sec  ( 81.9%)

Fock matrix formation       ....       1.780 sec  ( 58.0%)
  Split-RI-J                ....       0.311 sec  ( 17.5% of F)
  Chain of spheres X        ....       0.851 sec  ( 47.8% of F)
  XC integration            ....       0.243 sec  ( 13.7% of F)
    Basis function eval.    ....       0.016 sec  (  6.7% of XC)
    Density eval.           ....       0.022 sec  (  9.0% of XC)
    XC-Functional eval.     ....       0.008 sec  (  3.5% of XC)
    XC-Potential eval.      ....       0.034 sec  ( 14.1% of XC)
Diagonalization             ....       0.045 sec  (  1.5%)
Density matrix formation    ....       0.007 sec  (  0.2%)
Population analysis         ....       0.138 sec  (  4.5%)
Initial guess               ....       0.018 sec  (  0.6%)
Orbital Transformation      ....       0.000 sec  (  0.0%)
Orbital Orthonormalization  ....       0.010 sec  (  0.3%)
DIIS solution               ....       0.018 sec  (  0.6%)
Grid generation             ....       0.507 sec  ( 16.5%)

Maximum memory used throughout the entire SCF-calculation: 63.3 MB


-------------------------------------------------------------------------------
                          DFT DISPERSION CORRECTION                            
                                                                               
                              DFTD3 V3.1  Rev 1                                
                              USING zero damping                               
-------------------------------------------------------------------------------
The omegaB97X-D3 functional is recognized. Fit by Chai et al.
Active option DFTDOPT                   ...         3   

molecular C6(AA) [au] = 165.629244 


            DFT-D V3
 parameters
 s6 scaling factor         :     1.0000 
 rs6 scaling factor        :     1.2810 
 s8 scaling factor         :     1.0000 
 rs8 scaling factor        :     1.0940 
 Damping factor alpha6     :    14.0000 
 Damping factor alpha8     :    16.0000 
 ad hoc parameters k1-k3   :    16.0000     1.3333    -4.0000 

 Edisp/kcal,au: -0.035020929245  -0.000055809397 
 E6   /kcal   :  -0.004447973 
 E8   /kcal   :  -0.030572957 
 % E8         :  87.299101579 

-------------------------   ----------------
Dispersion correction           -0.000055809
-------------------------   ----------------


-------------------------   --------------------
FINAL SINGLE POINT ENERGY      -337.599457537701
-------------------------   --------------------

                                *** OPTIMIZATION RUN DONE ***

                            ***************************************
                            *     ORCA property calculations      *
                            ***************************************

                                    ---------------------
                                    Active property flags
                                    ---------------------
   (+) Dipole Moment


------------------------------------------------------------------------------
                       ORCA ELECTRIC PROPERTIES CALCULATION
------------------------------------------------------------------------------

Dipole Moment Calculation                       ... on
Quadrupole Moment Calculation                   ... off
Polarizability Calculation                      ... off
GBWName                                         ... /beegfs/scratch/ispackman/PFAS_EPR_calcs/benchmark/JChemEd_CF3_radical/CF3_radical_100.0_degrees_IN-PROGRESS/CF3_radical_100.0_degrees.gbw
Electron density                                ... /beegfs/scratch/ispackman/PFAS_EPR_calcs/benchmark/JChemEd_CF3_radical/CF3_radical_100.0_degrees_IN-PROGRESS/CF3_radical_100.0_degrees.scfp
The origin for moment calculation is the CENTER OF MASS  = ( 0.000009, -0.000000 -0.959463)

-------------
DIPOLE MOMENT
-------------
                                X             Y             Z
Electronic contribution:     -0.00033       0.00000       0.11471
Nuclear contribution   :     -0.00003       0.00000       0.30388
                        -----------------------------------------
Total Dipole Moment    :     -0.00036       0.00000       0.41860
                        -----------------------------------------
Magnitude (a.u.)       :      0.41860
Magnitude (Debye)      :      1.06400



--------------------
Rotational spectrum 
--------------------
 
Rotational constants in cm-1:     0.380184     0.380129     0.208478 
Rotational constants in MHz : 11397.630468 11395.977732  6250.009058 

 Dipole components along the rotational axes: 
x,y,z [a.u.] :     0.000372     0.000001     0.418600 
x,y,z [Debye]:     0.000946     0.000002     1.063996 

 


           ************************************************************
           *        Program running with 18 parallel MPI-processes    *
           *              working on a common directory               *
           ************************************************************

-------------------------------------------------------------------------------
                               ORCA SCF HESSIAN
-------------------------------------------------------------------------------

                   --------- SHARK INITIALIZATION DONE ---------

Hessian of the Kohn-Sham DFT energy:
Kohn-Sham wavefunction type                      ... UKS
Hartree-Fock exchange scaling                    ...    0.196
Number of operators                              ...    2
Number of atoms                                  ...    4
Basis set dimensions                             ...  157
Integral neglect threshold                       ... 2.5e-11
Integral primitive cutoff                        ... 2.5e-12

Setting up DFT Hessian calculations              ... 

HESS GRID
---------

General Integration Accuracy     IntAcc      ... 4.629
Radial Grid Type                 RadialGrid  ... OptM3 with GC (2021)
Angular Grid (max. ang.)         AngularGrid ... 5 (Lebedev-434)
Angular grid pruning method      GridPruning ... 4 (adaptive)
Weight generation scheme         WeightScheme... Becke
Basis function cutoff            BFCut       ... 1.0000e-11
Integration weight cutoff        WCut        ... 1.0000e-14
Angular grids for H and He will be reduced by one unit
Partially contracted basis set               ... off
Rotationally invariant grid construction     ... off

Total number of grid points                  ...    39975
Total number of batches                      ...      626
Average number of points per batch           ...       63
Average number of grid points per atom       ...     9994

Building densities                               ... done   (      0.0 sec)
Calculating rho(r) on the grid                   ... done   (      0.1 sec)
Building xc-kernel on the grid                   ... done   (      0.1 sec)
                                                     done   (      0.6 sec)

Nuclear repulsion Hessian  (SHARK)               ... done   (      0.0 sec)

----------------------------------------------
Forming right-hand sides of CP-SCF equations     ...
----------------------------------------------
One electron integral derivatives  (SHARK)       ... done   (      0.0 sec)
Transforming the overlap derivative matrices     ... done   (      0.0 sec)
Making the Q(x) pseudodensities                  ... done   (      0.0 sec)
Adding the E*S(x)*S(y) terms to the Hessian      ... done   (      0.0 sec)
Calculating energy weighted overlap derivatives  ... done   (      0.0 sec)
Two electron integral derivatives (SHARK-RI)     ... done   (      2.4 sec)
Exchange-correlation integral derivatives        ... done   (      2.3 sec)
tr(F(y)Q(x)) contribution to the Hessian         ... done   (      0.0 sec)
Response fock operator R(S(x)) (SHARK-RIJCOSX)   ... done   (      0.9 sec)
XC Response fock operator R(S(x))                ... done   (      0.5 sec)
tr(F(y)S(x)) contribution to the Hessian         ... done   (      0.0 sec)
Transforming and finalizing RHSs                 ... done   (      0.0 sec)

----------------------------------------------
Solving the CP-SCF equations (RIJCOSX)           ...
----------------------------------------------
     CP-SCF ITERATION   0:   1.6007e-01 (   0.4 sec   0/ 12 done)
     CP-SCF ITERATION   1:   5.3103e-02 (   0.5 sec   0/ 12 done)
     CP-SCF ITERATION   2:   1.9884e-02 (   0.5 sec   0/ 12 done)
     CP-SCF ITERATION   3:   5.7879e-03 (   0.5 sec   0/ 12 done)
     CP-SCF ITERATION   4:   2.1436e-03 (   0.5 sec   0/ 12 done)
     CP-SCF ITERATION   5:   8.9016e-04 (   0.5 sec   1/ 12 done)
     CP-SCF ITERATION   6:   2.6958e-04 (   0.5 sec   3/ 12 done)
     CP-SCF ITERATION   7:   6.3426e-05 (   0.4 sec  12/ 12 done)
                    *** THE CP-SCF HAS CONVERGED ***

                                                 ... done   (      3.9 sec)
Forming perturbed density Hessian contributions  ... done   (      0.0 sec)
2nd integral derivative contribs (SHARK-RI)      ... done   (      6.5 sec)
Exchange-correlation Hessian                     ... done   (      0.9 sec)
Dispersion correction in the Hessian             ... done   (      0.1 sec)
Dipole derivatives                               ... (center of mass:  0.000009, -0.000000 -0.959463)done   (      0.1 sec)

Total SCF Hessian time: 0 days 0 hours 0 min 18 sec 

Writing the Hessian file to the disk             ... done


Maximum memory used throughout the entire SCFHESS-calculation: 145.4 MB

-----------------------
VIBRATIONAL FREQUENCIES
-----------------------

Scaling factor for frequencies =  1.000000000  (already applied!)

   0:         0.00 cm**-1
   1:         0.00 cm**-1
   2:         0.00 cm**-1
   3:         0.00 cm**-1
   4:         0.00 cm**-1
   5:         0.00 cm**-1
   6:       579.90 cm**-1
   7:       580.89 cm**-1
   8:       779.63 cm**-1
   9:      1068.29 cm**-1
  10:      1068.82 cm**-1
  11:      1095.02 cm**-1


------------
NORMAL MODES
------------

These modes are the Cartesian displacements weighted by the diagonal matrix
M(i,i)=1/sqrt(m[i]) where m[i] is the mass of the displaced atom
Thus, these vectors are normalized but *not* orthogonal

                  0          1          2          3          4          5    
      0       0.000000   0.000000   0.000000   0.000000   0.000000   0.000000
      1       0.000000   0.000000   0.000000   0.000000   0.000000   0.000000
      2       0.000000   0.000000   0.000000   0.000000   0.000000   0.000000
      3       0.000000   0.000000   0.000000   0.000000   0.000000   0.000000
      4       0.000000   0.000000   0.000000   0.000000   0.000000   0.000000
      5       0.000000   0.000000   0.000000   0.000000   0.000000   0.000000
      6       0.000000   0.000000   0.000000   0.000000   0.000000   0.000000
      7       0.000000   0.000000   0.000000   0.000000   0.000000   0.000000
      8       0.000000   0.000000   0.000000   0.000000   0.000000   0.000000
      9       0.000000   0.000000   0.000000   0.000000   0.000000   0.000000
     10       0.000000   0.000000   0.000000   0.000000   0.000000   0.000000
     11       0.000000   0.000000   0.000000   0.000000   0.000000   0.000000
                  6          7          8          9         10         11    
      0      -0.300480  -0.000011   0.000242  -0.884230   0.000779  -0.012647
      1       0.000011  -0.299818   0.000000  -0.000780  -0.884431   0.000008
      2      -0.001171  -0.000000   0.571734   0.011849  -0.000018  -0.833980
      3      -0.480954  -0.000018  -0.459089   0.326136  -0.000290  -0.260848
      4      -0.000023   0.608280   0.000000   0.000044   0.050248  -0.000000
      5      -0.066526  -0.000002  -0.120415  -0.199017   0.000177   0.172928
      6       0.335444   0.472122   0.229468   0.116344  -0.117993   0.134423
      7       0.472573  -0.209346  -0.395914  -0.115021   0.254555  -0.231797
      8       0.033635  -0.057717  -0.120525   0.095613  -0.170323   0.177169
      9       0.335480  -0.472098   0.229468   0.116552   0.117790   0.134421
     10      -0.472558  -0.209382   0.395913   0.115470   0.254356   0.231792
     11       0.033631   0.057719  -0.120525   0.095913   0.170157   0.177166


-----------
IR SPECTRUM
-----------

 Mode   freq       eps      Int      T**2         TX        TY        TZ
       cm**-1   L/(mol*cm) km/mol    a.u.
----------------------------------------------------------------------------
  6:    579.90   0.000296    1.50  0.000159  (-0.012624  0.000000 -0.000081)
  7:    580.89   0.000291    1.47  0.000156  (-0.000000 -0.012506 -0.000000)
  8:    779.63   0.002646   13.37  0.001059  ( 0.000099  0.000000  0.032542)
  9:   1068.29   0.060744  306.97  0.017744  (-0.133205 -0.000117  0.000739)
 10:   1068.82   0.060716  306.83  0.017727  ( 0.000117 -0.133143 -0.000001)
 11:   1095.02   0.009260   46.80  0.002639  (-0.001831  0.000001 -0.051338)

* The epsilon (eps) is given for a Dirac delta lineshape.
** The dipole moment derivative (T) already includes vibrational overlap.

The first frequency considered to be a vibration is 6
The total number of vibrations considered is 6


--------------------------
THERMOCHEMISTRY AT 298.15K
--------------------------

Temperature         ... 298.15 K
Pressure            ... 1.00 atm
Total Mass          ... 69.00 AMU

Throughout the following assumptions are being made:
  (1) The electronic state is orbitally nondegenerate
      but the spin degeneracy is treated
  (2) There are no thermally accessible electronically excited states
  (3) Hindered rotations indicated by low frequency modes are not
      treated as such but are treated as vibrations and this may
      cause some error
  (4) All equations used are the standard statistical mechanics
      equations for an ideal gas
  (5) All vibrations are strictly harmonic

freq.     579.90  E(vib)   ...       0.11 
freq.     580.89  E(vib)   ...       0.11 
freq.     779.63  E(vib)   ...       0.05 
freq.    1068.29  E(vib)   ...       0.02 
freq.    1068.82  E(vib)   ...       0.02 
freq.    1095.02  E(vib)   ...       0.02 

------------
INNER ENERGY
------------

The inner energy is: U= E(el) + E(ZPE) + E(vib) + E(rot) + E(trans)
    E(el)   - is the total energy from the electronic structure calculation
              = E(kin-el) + E(nuc-el) + E(el-el) + E(nuc-nuc)
    E(ZPE)  - the the zero temperature vibrational energy from the frequency calculation
    E(vib)  - the the finite temperature correction to E(ZPE) due to population
              of excited vibrational states
    E(rot)  - is the rotational thermal energy
    E(trans)- is the translational thermal energy

Summary of contributions to the inner energy U:
Electronic energy                ...   -337.59945754 Eh
Zero point energy                ...      0.01178396 Eh       7.39 kcal/mol
Thermal vibrational correction   ...      0.00050855 Eh       0.32 kcal/mol
Thermal rotational correction    ...      0.00141627 Eh       0.89 kcal/mol
Thermal translational correction ...      0.00141627 Eh       0.89 kcal/mol
-----------------------------------------------------------------------
Total thermal energy                   -337.58433249 Eh


Summary of corrections to the electronic energy:
(perhaps to be used in another calculation)
Total thermal correction                  0.00334109 Eh       2.10 kcal/mol
Non-thermal (ZPE) correction              0.01178396 Eh       7.39 kcal/mol
-----------------------------------------------------------------------
Total correction                          0.01512504 Eh       9.49 kcal/mol


--------
ENTHALPY
--------

The enthalpy is H = U + kB*T
                kB is Boltzmann's constant
Total free energy                 ...   -337.58433249 Eh 
Thermal Enthalpy correction       ...      0.00094421 Eh       0.59 kcal/mol
-----------------------------------------------------------------------
Total Enthalpy                    ...   -337.58338828 Eh


Note: Rotational entropy computed according to Herzberg 
Infrared and Raman Spectra, Chapter V,1, Van Nostrand Reinhold, 1945 
Point Group:  Cs, Symmetry Number:   1  
Rotational constants in cm-1:     0.380184     0.380129     0.208478 

Vibrational entropy computed according to the QRRHO of S. Grimme
Chem.Eur.J. 2012 18 9955


-------
ENTROPY
-------

The entropy contributions are T*S = T*(S(el)+S(vib)+S(rot)+S(trans))
     S(el)   - electronic entropy
     S(vib)  - vibrational entropy
     S(rot)  - rotational entropy
     S(trans)- translational entropy
The entropies will be listed as multiplied by the temperature to get
units of energy

Electronic entropy                ...      0.00065446 Eh      0.41 kcal/mol
Vibrational entropy               ...      0.00066546 Eh      0.42 kcal/mol
Rotational entropy                ...      0.01116420 Eh      7.01 kcal/mol
Translational entropy             ...      0.01834582 Eh     11.51 kcal/mol
-----------------------------------------------------------------------
Final entropy term                ...      0.03082994 Eh     19.35 kcal/mol

In case the symmetry of your molecule has not been determined correctly
or in case you have a reason to use a different symmetry number we print 
out the resulting rotational entropy values for sn=1,12 :
 --------------------------------------------------------
|  sn= 1 | S(rot)=       0.01116420 Eh      7.01 kcal/mol|
|  sn= 2 | S(rot)=       0.01050974 Eh      6.59 kcal/mol|
|  sn= 3 | S(rot)=       0.01012691 Eh      6.35 kcal/mol|
|  sn= 4 | S(rot)=       0.00985528 Eh      6.18 kcal/mol|
|  sn= 5 | S(rot)=       0.00964460 Eh      6.05 kcal/mol|
|  sn= 6 | S(rot)=       0.00947245 Eh      5.94 kcal/mol|
|  sn= 7 | S(rot)=       0.00932691 Eh      5.85 kcal/mol|
|  sn= 8 | S(rot)=       0.00920083 Eh      5.77 kcal/mol|
|  sn= 9 | S(rot)=       0.00908962 Eh      5.70 kcal/mol|
|  sn=10 | S(rot)=       0.00899014 Eh      5.64 kcal/mol|
|  sn=11 | S(rot)=       0.00890015 Eh      5.58 kcal/mol|
|  sn=12 | S(rot)=       0.00881800 Eh      5.53 kcal/mol|
 --------------------------------------------------------


-------------------
GIBBS FREE ENERGY
-------------------

The Gibbs free energy is G = H - T*S

Total enthalpy                    ...   -337.58338828 Eh 
Total entropy correction          ...     -0.03082994 Eh    -19.35 kcal/mol
-----------------------------------------------------------------------
Final Gibbs free energy         ...   -337.61421822 Eh

For completeness - the Gibbs free energy minus the electronic energy
G-E(el)                           ...     -0.01476068 Eh     -9.26 kcal/mol


Timings for individual modules:

Sum of individual times         ...      152.899 sec (=   2.548 min)
GTO integral calculation        ...       58.807 sec (=   0.980 min)  38.5 %
SCF iterations                  ...       56.797 sec (=   0.947 min)  37.1 %
SCF Gradient evaluation         ...       15.306 sec (=   0.255 min)  10.0 %
Geometry relaxation             ...        0.208 sec (=   0.003 min)   0.1 %
Analytical frequency calculation...       21.781 sec (=   0.363 min)  14.2 %
                             ****ORCA TERMINATED NORMALLY****
TOTAL RUN TIME: 0 days 0 hours 2 minutes 47 seconds 496 msec

slurmID:    32260040
totalRuntime[s]:    167.536093025
