
                                 *****************
                                 * O   R   C   A *
                                 *****************

                                            #,                                       
                                            ###                                      
                                            ####                                     
                                            #####                                    
                                            ######                                   
                                           ########,                                 
                                     ,,################,,,,,                         
                               ,,#################################,,                 
                          ,,##########################################,,             
                       ,#########################################, ''#####,          
                    ,#############################################,,   '####,        
                  ,##################################################,,,,####,       
                ,###########''''           ''''###############################       
              ,#####''   ,,,,##########,,,,          '''####'''          '####       
            ,##' ,,,,###########################,,,                        '##       
           ' ,,###''''                  '''############,,,                           
         ,,##''                                '''############,,,,        ,,,,,,###''
      ,#''                                            '''#######################'''  
     '                                                          ''''####''''         
             ,#######,   #######,   ,#######,      ##                                
            ,#'     '#,  ##    ##  ,#'     '#,    #''#        ######   ,####,        
            ##       ##  ##   ,#'  ##            #'  '#       #        #'  '#        
            ##       ##  #######   ##           ,######,      #####,   #    #        
            '#,     ,#'  ##    ##  '#,     ,#' ,#      #,         ##   #,  ,#        
             '#######'   ##     ##  '#######'  #'      '#     #####' # '####'        



                  #######################################################
                  #                        -***-                        #
                  #          Department of theory and spectroscopy      #
                  #    Directorship and core code : Frank Neese         #
                  #        Max Planck Institute fuer Kohlenforschung    #
                  #                Kaiser Wilhelm Platz 1               #
                  #                 D-45470 Muelheim/Ruhr               #
                  #                      Germany                        #
                  #                                                     #
                  #                  All rights reserved                #
                  #                        -***-                        #
                  #######################################################


                         Program Version 5.0.4 -  RELEASE  -


 With contributions from (in alphabetic order):
   Daniel Aravena         : Magnetic Suceptibility
   Michael Atanasov       : Ab Initio Ligand Field Theory (pilot matlab implementation)
   Alexander A. Auer      : GIAO ZORA, VPT2 properties, NMR spectrum
   Ute Becker             : Parallelization
   Giovanni Bistoni       : ED, misc. LED, open-shell LED, HFLD
   Martin Brehm           : Molecular dynamics
   Dmytro Bykov           : SCF Hessian
   Vijay G. Chilkuri      : MRCI spin determinant printing, contributions to CSF-ICE
   Dipayan Datta          : RHF DLPNO-CCSD density
   Achintya Kumar Dutta   : EOM-CC, STEOM-CC
   Dmitry Ganyushin       : Spin-Orbit,Spin-Spin,Magnetic field MRCI
   Miquel Garcia          : C-PCM and meta-GGA Hessian, CC/C-PCM, Gaussian charge scheme
   Yang Guo               : DLPNO-NEVPT2, F12-NEVPT2, CIM, IAO-localization
   Andreas Hansen         : Spin unrestricted coupled pair/coupled cluster methods
   Benjamin Helmich-Paris : MC-RPA, TRAH-SCF, COSX integrals
   Lee Huntington         : MR-EOM, pCC
   Robert Izsak           : Overlap fitted RIJCOSX, COSX-SCS-MP3, EOM
   Marcus Kettner         : VPT2
   Christian Kollmar      : KDIIS, OOCD, Brueckner-CCSD(T), CCSD density, CASPT2, CASPT2-K
   Simone Kossmann        : Meta GGA functionals, TD-DFT gradient, OOMP2, MP2 Hessian
   Martin Krupicka        : Initial AUTO-CI
   Lucas Lang             : DCDCAS
   Marvin Lechner         : AUTO-CI (C++ implementation), FIC-MRCC
   Dagmar Lenk            : GEPOL surface, SMD
   Dimitrios Liakos       : Extrapolation schemes; Compound Job, initial MDCI parallelization
   Dimitrios Manganas     : Further ROCIS development; embedding schemes
   Dimitrios Pantazis     : SARC Basis sets
   Anastasios Papadopoulos: AUTO-CI, single reference methods and gradients
   Taras Petrenko         : DFT Hessian,TD-DFT gradient, ASA, ECA, R-Raman, ABS, FL, XAS/XES, NRVS
   Peter Pinski           : DLPNO-MP2, DLPNO-MP2 Gradient
   Christoph Reimann      : Effective Core Potentials
   Marius Retegan         : Local ZFS, SOC
   Christoph Riplinger    : Optimizer, TS searches, QM/MM, DLPNO-CCSD(T), (RO)-DLPNO pert. Triples
   Tobias Risthaus        : Range-separated hybrids, TD-DFT gradient, RPA, STAB
   Michael Roemelt        : Original ROCIS implementation
   Masaaki Saitow         : Open-shell DLPNO-CCSD energy and density
   Barbara Sandhoefer     : DKH picture change effects
   Avijit Sen             : IP-ROCIS
   Kantharuban Sivalingam : CASSCF convergence, NEVPT2, FIC-MRCI
   Bernardo de Souza      : ESD, SOC TD-DFT
   Georgi Stoychev        : AutoAux, RI-MP2 NMR, DLPNO-MP2 response
   Willem Van den Heuvel  : Paramagnetic NMR
   Boris Wezisla          : Elementary symmetry handling
   Frank Wennmohs         : Technical directorship


 We gratefully acknowledge several colleagues who have allowed us to
 interface, adapt or use parts of their codes:
   Stefan Grimme, W. Hujo, H. Kruse, P. Pracht,  : VdW corrections, initial TS optimization,
                  C. Bannwarth, S. Ehlert          DFT functionals, gCP, sTDA/sTD-DF
   Ed Valeev, F. Pavosevic, A. Kumar             : LibInt (2-el integral package), F12 methods
   Garnet Chan, S. Sharma, J. Yang, R. Olivares  : DMRG
   Ulf Ekstrom                                   : XCFun DFT Library
   Mihaly Kallay                                 : mrcc  (arbitrary order and MRCC methods)
   Jiri Pittner, Ondrej Demel                    : Mk-CCSD
   Frank Weinhold                                : gennbo (NPA and NBO analysis)
   Christopher J. Cramer and Donald G. Truhlar   : smd solvation model
   Lars Goerigk                                  : TD-DFT with DH, B97 family of functionals
   V. Asgeirsson, H. Jonsson                     : NEB implementation
   FAccTs GmbH                                   : IRC, NEB, NEB-TS, DLPNO-Multilevel, CI-OPT
                                                   MM, QMMM, 2- and 3-layer-ONIOM, Crystal-QMMM,
                                                   LR-CPCM, SF, NACMEs, symmetry and pop. for TD-DFT,
                                                   nearIR, NL-DFT gradient (VV10), updates on ESD,
                                                   ML-optimized integration grids
   S Lehtola, MJT Oliveira, MAL Marques          : LibXC Library
   Liviu Ungur et al                             : ANISO software


 Your calculation uses the libint2 library for the computation of 2-el integrals
 For citations please refer to: http://libint.valeyev.net

 Your ORCA version has been built with support for libXC version: 5.1.0
 For citations please refer to: https://tddft.org/programs/libxc/

 This ORCA versions uses:
   CBLAS   interface :  Fast vector & matrix operations
   LAPACKE interface :  Fast linear algebra routines
   SCALAPACK package :  Parallel linear algebra routines
   Shared memory     :  Shared parallel matrices
   BLAS/LAPACK       :  OpenBLAS 0.3.15  USE64BITINT DYNAMIC_ARCH NO_AFFINITY SkylakeX SINGLE_THREADED
        Core in use  :  SkylakeX
   Copyright (c) 2011-2014, The OpenBLAS Project


Your calculation utilizes the atom-pairwise dispersion correction
with the zero-damping scheme (D30)
Cite in your paper:
S.Grimme, J.Antony, S.Ehrlich and H.Krieg, J.Chem.Phys., 132, (2010), 154104 
   

XCFun DFT library Copyright 2009-2010 Ulf Ekstrom and contributors.
See http://admol.org/xcfun for more information.
This is free software; see the source code for copying conditions.
There is ABSOLUTELY NO WARRANTY; not even for MERCHANTABILITY or FITNESS FOR A PARTICULAR PURPOSE.
For details see the documentation.
Scientific users of this library should cite U. Ekstrom, L. Visscher, R. Bast, A. J. Thorvaldsen and K. Ruud;
J.Chem.Theor.Comp. 2010, DOI: 10.1021/ct100117s
XCFun Version 0.99 

================================================================================

----- Orbital basis set information -----
Your calculation utilizes the basis: def2-TZVPD
   F. Weigend and R. Ahlrichs, Phys. Chem. Chem. Phys. 7, 3297 (2005).
   D. Rappoport and F. Furche, J. Chem. Phys. 133 134105 (2010).

----- AuxJ basis set information -----
Your calculation utilizes the auxiliary basis: def2/J
   F. Weigend, Phys. Chem. Chem. Phys. 8, 1057 (2006).

================================================================================
                                        WARNINGS
                       Please study these warnings very carefully!
================================================================================


WARNING: Geometry Optimization
  ===> : Switching off AutoStart
         For restart on a previous wavefunction, please use MOREAD

INFO   : the flag for use of the SHARK integral package has been found!

================================================================================
                                       INPUT FILE
================================================================================
NAME = /beegfs/scratch/ispackman/PFAS_EPR_calcs/benchmark/JChemEd_CF3_radical/CF3_radical_118.5_degrees_IN-PROGRESS/CF3_radical_118.5_degrees.inp
|  1> ! UKS TightSCF wB97x-D3 def2-TZVPD xyzfile opt freq
|  2> 
|  3> # CF3 radical 118.5 degrees fixed
|  4> 
|  5> %maxcore 1000
|  6> %pal
|  7> nprocs 18
|  8> end
|  9> 
| 10> %geom Constraints
| 11>         { A * 0 * C }
| 12>     end
| 13> end
| 14> * xyz 0 2
| 15> C 0.00 0.00 0.00
| 16> F 1.3049495156 0.0000000000 -0.1622706439
| 17> F -0.6524747578 1.1301194311 -0.1622706439
| 18> F -0.6524747578 -1.1301194311 -0.1622706439
| 19> **                         ****END OF INPUT****
================================================================================

                       *****************************
                       * Geometry Optimization Run *
                       *****************************

Geometry optimization settings:
Update method            Update   .... BFGS
Choice of coordinates    CoordSys .... Z-matrix Internals
Initial Hessian          InHess   .... Almoef's Model

Convergence Tolerances:
Energy Change            TolE     ....  5.0000e-06 Eh
Max. Gradient            TolMAXG  ....  3.0000e-04 Eh/bohr
RMS Gradient             TolRMSG  ....  1.0000e-04 Eh/bohr
Max. Displacement        TolMAXD  ....  4.0000e-03 bohr
RMS Displacement         TolRMSD  ....  2.0000e-03 bohr
Strict Convergence                ....  False
------------------------------------------------------------------------------
                        ORCA OPTIMIZATION COORDINATE SETUP
------------------------------------------------------------------------------

The optimization will be done in new redundant internal coordinates
Making redundant internal coordinates   ...  (new redundants) done
Evaluating the initial hessian          ...  (Almloef) done
Evaluating the coordinates              ...  done
Calculating the B-matrix                .... done
Calculating the G-matrix                .... done
Diagonalizing the G-matrix              .... done
Imposing constraints:
 Iter   0:  RMS(Cart)=    0.0000000000 RMS(Int)=    0.0000000000
CONVERGED
Will constrain atom 0 coordinate 1 
Will constrain atom 0 coordinate 2 
Will constrain atom 1 coordinate 2 
The first mode is                       ....    1
The number of degrees of freedom        ....    6
Storing new coordinates                 .... done

    -----------------------------------------------------------------
                    Redundant Internal Coordinates


    -----------------------------------------------------------------
         Definition                    Initial Value    Approx d2E/dq
    -----------------------------------------------------------------
      1. B(F   1,C   0)                  1.3150         0.684896   
      2. B(F   2,C   0)                  1.3150         0.684896   
      3. B(F   3,C   0)                  1.3150         0.684896   
      4. A(F   2,C   0,F   3)          118.5000         0.440101 C 
      5. A(F   1,C   0,F   2)          118.5000         0.440101 C 
      6. A(F   1,C   0,F   3)          118.5000         0.440101 C 
      7. I(F   1,F   3,F   2,C   0)     21.0545         0.067889   
    -----------------------------------------------------------------

Number of atoms                         .... 4
Number of degrees of freedom            .... 7

         *************************************************************
         *                GEOMETRY OPTIMIZATION CYCLE   1            *
         *************************************************************
---------------------------------
CARTESIAN COORDINATES (ANGSTROEM)
---------------------------------
  C      0.000000    0.000000    0.000000
  F      1.304950    0.000000   -0.162271
  F     -0.652475    1.130119   -0.162271
  F     -0.652475   -1.130119   -0.162271

----------------------------
CARTESIAN COORDINATES (A.U.)
----------------------------
  NO LB      ZA    FRAG     MASS         X           Y           Z
   0 C     6.0000    0    12.011    0.000000    0.000000    0.000000
   1 F     9.0000    0    18.998    2.465997    0.000000   -0.306647
   2 F     9.0000    0    18.998   -1.232999    2.135616   -0.306647
   3 F     9.0000    0    18.998   -1.232999   -2.135616   -0.306647

--------------------------------
INTERNAL COORDINATES (ANGSTROEM)
--------------------------------
 C      0   0   0     0.000000000000     0.00000000     0.00000000
 F      1   0   0     1.315000000052     0.00000000     0.00000000
 F      1   2   0     1.314999999995   118.50000000     0.00000000
 F      1   2   3     1.314999999995   118.50000000   155.87087306

---------------------------
INTERNAL COORDINATES (A.U.)
---------------------------
 C      0   0   0     0.000000000000     0.00000000     0.00000000
 F      1   0   0     2.484989866204     0.00000000     0.00000000
 F      1   2   0     2.484989866098   118.50000000     0.00000000
 F      1   2   3     2.484989866098   118.50000000   155.87087306

---------------------
BASIS SET INFORMATION
---------------------
There are 2 groups of distinct atoms

 Group   1 Type C   : 12s6p3d1f contracted to 6s3p3d1f pattern {621111/411/111/1}
 Group   2 Type F   : 12s7p3d1f contracted to 6s4p3d1f pattern {621111/4111/111/1}

Atom   0C    basis set group =>   1
Atom   1F    basis set group =>   2
Atom   2F    basis set group =>   2
Atom   3F    basis set group =>   2
---------------------------------
AUXILIARY/J BASIS SET INFORMATION
---------------------------------
There are 2 groups of distinct atoms

 Group   1 Type C   : 12s5p4d2f1g contracted to 6s4p3d1f1g pattern {711111/2111/211/2/1}
 Group   2 Type F   : 12s5p4d2f1g contracted to 6s4p3d1f1g pattern {711111/2111/211/2/1}

Atom   0C    basis set group =>   1
Atom   1F    basis set group =>   2
Atom   2F    basis set group =>   2
Atom   3F    basis set group =>   2


           ************************************************************
           *        Program running with 18 parallel MPI-processes    *
           *              working on a common directory               *
           ************************************************************
------------------------------------------------------------------------------
                           ORCA GTO INTEGRAL CALCULATION
                           -- RI-GTO INTEGRALS CHOSEN --
------------------------------------------------------------------------------
------------------------------------------------------------------------------
                   ___                                                        
                  /   \      - P O W E R E D   B Y -                         
                 /     \                                                     
                 |  |  |   _    _      __       _____    __    __             
                 |  |  |  | |  | |    /  \     |  _  \  |  |  /  |          
                  \  \/   | |  | |   /    \    | | | |  |  | /  /          
                 / \  \   | |__| |  /  /\  \   | |_| |  |  |/  /          
                |  |  |   |  __  | /  /__\  \  |    /   |      \           
                |  |  |   | |  | | |   __   |  |    \   |  |\   \          
                \     /   | |  | | |  |  |  |  | |\  \  |  | \   \       
                 \___/    |_|  |_| |__|  |__|  |_| \__\ |__|  \__/        
                                                                              
                      - O R C A' S   B I G   F R I E N D -                    
                                      &                                       
                       - I N T E G R A L  F E E D E R -                       
                                                                              
 v1 FN, 2020, v2 2021                                                         
------------------------------------------------------------------------------


Reading SHARK input file /beegfs/scratch/ispackman/PFAS_EPR_calcs/benchmark/JChemEd_CF3_radical/CF3_radical_118.5_degrees_IN-PROGRESS/CF3_radical_118.5_degrees.SHARKINP.tmp ... ok
----------------------
SHARK INTEGRAL PACKAGE
----------------------

Number of atoms                             ...      4
Number of basis functions                   ...    157
Number of shells                            ...     55
Maximum angular momentum                    ...      3
Integral batch strategy                     ... SHARK/LIBINT Hybrid
RI-J (if used) integral strategy            ... SPLIT-RIJ (Revised 2003 algorithm where possible)
Printlevel                                  ...      1
Contraction scheme used                     ... SEGMENTED contraction
Coulomb Range Separation                    ... NOT USED
Exchange Range Separation                   ... Long Range
   Mu parameter                             ...  0.250000
   Scaling (regular/separated)              ...  0.195728  0.804272
Finite Nucleus Model                        ... NOT USED
Auxiliary Coulomb fitting basis             ... AVAILABLE
   # of basis functions in Aux-J            ...    196
   # of shells in Aux-J                     ...     60
   Maximum angular momentum in Aux-J        ...      4
Auxiliary J/K fitting basis                 ... NOT available
Auxiliary Correlation fitting basis         ... NOT available
Auxiliary 'external' fitting basis          ... NOT available
Integral threshold                          ...     2.500000e-11
Primitive cut-off                           ...     2.500000e-12
Primitive pair pre-selection threshold      ...     2.500000e-12

Calculating pre-screening integrals         ... done (  0.0 sec) Dimension = 55
Organizing shell pair data                  ... done (  0.0 sec)
Shell pair information
Total number of shell pairs                 ...      1540
Shell pairs after pre-screening             ...      1492
Total number of primitive shell pairs       ...      4274
Primitive shell pairs kept                  ...      3443
          la=0 lb=0:    276 shell pairs
          la=1 lb=0:    354 shell pairs
          la=1 lb=1:    120 shell pairs
          la=2 lb=0:    276 shell pairs
          la=2 lb=1:    180 shell pairs
          la=2 lb=2:     78 shell pairs
          la=3 lb=0:     90 shell pairs
          la=3 lb=1:     60 shell pairs
          la=3 lb=2:     48 shell pairs
          la=3 lb=3:     10 shell pairs

Calculating one electron integrals          ... done (  0.0 sec)
Calculating RI/J V-Matrix + Cholesky decomp.... done (  0.0 sec)
Calculating Nuclear repulsion               ... done (  0.0 sec) ENN=    122.083657071998 Eh

SHARK setup successfully completed in   0.3 seconds

Maximum memory used throughout the entire GTOINT-calculation: 15.2 MB


           ************************************************************
           *        Program running with 18 parallel MPI-processes    *
           *              working on a common directory               *
           ************************************************************
-------------------------------------------------------------------------------
                                 ORCA SCF
-------------------------------------------------------------------------------

------------
SCF SETTINGS
------------
Hamiltonian:
 Density Functional     Method          .... DFT(GTOs)
 Exchange Functional    Exchange        .... WB97X-D3
 Correlation Functional Correlation     .... WB97X-D3
 Gradients option       PostSCFGGA      .... off
 Hybrid DFT is turned on
   Fraction HF Exchange ScalHFX         ....  0.195728
   Scaling of DF-GGA-X  ScalDFX         ....  0.000000
   Scaling of DF-GGA-C  ScalDFC         ....  1.000000
   Scaling of DF-LDA-C  ScalLDAC        ....  1.000000
   Perturbative correction              ....  0.000000
   Density functional embedding theory  .... OFF
 Long-range corrected/Screened/Range-Separated Hybrid DFT is turned on
   Amount of maximum screened exact exchange              ....  0.804272
   Range separation parameter mu (erf(mu*r12)/r12)        ....  0.250000
 RI-approximation to the Coulomb term is turned on
   Number of AuxJ basis functions       .... 196
   RIJ-COSX (HFX calculated with COS-X)).... on


General Settings:
 Integral files         IntName         .... /beegfs/scratch/ispackman/PFAS_EPR_calcs/benchmark/JChemEd_CF3_radical/CF3_radical_118.5_degrees_IN-PROGRESS/CF3_radical_118.5_degrees
 Hartree-Fock type      HFTyp           .... UHF
 Total Charge           Charge          ....    0
 Multiplicity           Mult            ....    2
 Number of Electrons    NEL             ....   33
 Basis Dimension        Dim             ....  157
 Nuclear Repulsion      ENuc            ....    122.0836570720 Eh

Convergence Acceleration:
 DIIS                   CNVDIIS         .... on
   Start iteration      DIISMaxIt       ....    12
   Startup error        DIISStart       ....  0.200000
   # of expansion vecs  DIISMaxEq       ....     5
   Bias factor          DIISBfac        ....   1.050
   Max. coefficient     DIISMaxC        ....  10.000
 Trust-Rad. Augm. Hess. CNVTRAH         .... auto
   Auto Start mean grad. ratio tolernc. ....  1.125000
   Auto Start start iteration           ....    20
   Auto Start num. interpolation iter.  ....    10
   Max. Number of Micro iterations      ....    16
   Max. Number of Macro iterations      .... Maxiter - #DIIS iter
   Number of Davidson start vectors     ....     2
   Converg. threshold I  (grad. norm)   ....   1.000e-05
   Converg. threshold II (energy diff.) ....   1.000e-08
   Grad. Scal. Fac. for Micro threshold ....   0.100
   Minimum threshold for Micro iter.    ....   0.010
   NR start threshold (gradient norm)   ....   0.001
   Initial trust radius                 ....   0.400
   Minimum AH scaling param. (alpha)    ....   1.000
   Maximum AH scaling param. (alpha)    .... 1000.000
   Orbital update algorithm             .... Taylor
   White noise on init. David. guess    .... on
   Maximum white noise                  ....   0.010
   Quad. conv. algorithm                .... NR
 SOSCF                  CNVSOSCF        .... off
 Level Shifting         CNVShift        .... on
   Level shift para.    LevelShift      ....    0.2500
   Turn off err/grad.   ShiftErr        ....    0.0010
 Zerner damping         CNVZerner       .... off
 Static damping         CNVDamp         .... on
   Fraction old density DampFac         ....    0.7000
   Max. Damping (<1)    DampMax         ....    0.9800
   Min. Damping (>=0)   DampMin         ....    0.0000
   Turn off err/grad.   DampErr         ....    0.1000
 Fernandez-Rico         CNVRico         .... off

SCF Procedure:
 Maximum # iterations   MaxIter         ....   125
 SCF integral mode      SCFMode         .... Direct
   Integral package                     .... SHARK and LIBINT hybrid scheme
 Reset frequency        DirectResetFreq ....    20
 Integral Threshold     Thresh          ....  2.500e-11 Eh
 Primitive CutOff       TCut            ....  2.500e-12 Eh

Convergence Tolerance:
 Convergence Check Mode ConvCheckMode   .... Total+1el-Energy
 Convergence forced     ConvForced      .... 0
 Energy Change          TolE            ....  1.000e-08 Eh
 1-El. energy change                    ....  1.000e-05 Eh
 DIIS Error             TolErr          ....  5.000e-07


Diagonalization of the overlap matrix:
Smallest eigenvalue                        ... 2.744e-04
Time for diagonalization                   ...    0.008 sec
Threshold for overlap eigenvalues          ... 1.000e-08
Number of eigenvalues below threshold      ... 0
Time for construction of square roots      ...    0.016 sec
Total time needed                          ...    0.025 sec

Time for model grid setup =    0.054 sec

------------------------------
INITIAL GUESS: MODEL POTENTIAL
------------------------------
Loading Hartree-Fock densities                     ... done
Calculating cut-offs                               ... done
Initializing the effective Hamiltonian             ... done
Setting up the integral package (SHARK)            ... done
Starting the Coulomb interaction                   ... done (   0.1 sec)
Reading the grid                                   ... done
Mapping shells                                     ... done
Starting the XC term evaluation                    ... done (   0.0 sec)
  promolecular density results
     # of electrons  =     32.999836461
     EX              =    -35.093758297
     EC              =     -1.143422590
     EX+EC           =    -36.237180887
Transforming the Hamiltonian                       ... done (   0.0 sec)
Diagonalizing the Hamiltonian                      ... done (   0.0 sec)
Back transforming the eigenvectors                 ... done (   0.0 sec)
Now organizing SCF variables                       ... done
                      ------------------
                      INITIAL GUESS DONE (   0.2 sec)
                      ------------------
-------------------
DFT GRID GENERATION
-------------------

General Integration Accuracy     IntAcc      ... 4.388
Radial Grid Type                 RadialGrid  ... OptM3 with GC (2021)
Angular Grid (max. ang.)         AngularGrid ... 4 (Lebedev-302)
Angular grid pruning method      GridPruning ... 4 (adaptive)
Weight generation scheme         WeightScheme... Becke
Basis function cutoff            BFCut       ... 1.0000e-11
Integration weight cutoff        WCut        ... 1.0000e-14
Angular grids for H and He will be reduced by one unit
Partially contracted basis set               ... off
Rotationally invariant grid construction     ... off

Total number of grid points                  ...    25766
Total number of batches                      ...      404
Average number of points per batch           ...       63
Average number of grid points per atom       ...     6442
Time for grid setup =    0.149 sec

--------------------
COSX GRID GENERATION
--------------------

GRIDX 1
-------
General Integration Accuracy     IntAcc      ... 3.816
Radial Grid Type                 RadialGrid  ... OptM3 with GC (2021)
Angular Grid (max. ang.)         AngularGrid ... 1 (Lebedev-50)
Angular grid pruning method      GridPruning ... 4 (adaptive)
Weight generation scheme         WeightScheme... Becke
Basis function cutoff            BFCut       ... 1.0000e-11
Integration weight cutoff        WCut        ... 1.0000e-14
Angular grids for H and He will be reduced by one unit
Partially contracted basis set               ... on
Rotationally invariant grid construction     ... off

Total number of grid points                  ...     3271
Total number of batches                      ...       52
Average number of points per batch           ...       62
Average number of grid points per atom       ...      818
UseSFitting                                  ... on

GRIDX 2
-------
General Integration Accuracy     IntAcc      ... 4.020
Radial Grid Type                 RadialGrid  ... OptM3 with GC (2021)
Angular Grid (max. ang.)         AngularGrid ... 2 (Lebedev-110)
Angular grid pruning method      GridPruning ... 4 (adaptive)
Weight generation scheme         WeightScheme... Becke
Basis function cutoff            BFCut       ... 1.0000e-11
Integration weight cutoff        WCut        ... 1.0000e-14
Angular grids for H and He will be reduced by one unit
Partially contracted basis set               ... on
Rotationally invariant grid construction     ... off

Total number of grid points                  ...     9133
Total number of batches                      ...      145
Average number of points per batch           ...       62
Average number of grid points per atom       ...     2283
UseSFitting                                  ... on

GRIDX 3
-------
General Integration Accuracy     IntAcc      ... 4.338
Radial Grid Type                 RadialGrid  ... OptM3 with GC (2021)
Angular Grid (max. ang.)         AngularGrid ... 3 (Lebedev-194)
Angular grid pruning method      GridPruning ... 4 (adaptive)
Weight generation scheme         WeightScheme... Becke
Basis function cutoff            BFCut       ... 1.0000e-11
Integration weight cutoff        WCut        ... 1.0000e-14
Angular grids for H and He will be reduced by one unit
Partially contracted basis set               ... on
Rotationally invariant grid construction     ... off

Total number of grid points                  ...    19656
Total number of batches                      ...      310
Average number of points per batch           ...       63
Average number of grid points per atom       ...     4914
UseSFitting                                  ... on

Time for X-Grid setup             =    0.348 sec

--------------
SCF ITERATIONS
--------------
ITER       Energy         Delta-E        Max-DP      RMS-DP      [F,P]     Damp
               ***  Starting incremental Fock matrix formation  ***
  0   -337.5594686856   0.000000000000 0.01556117  0.00034292  0.0621759 0.7000
  1   -337.5795911655  -0.020122479928 0.01143280  0.00023969  0.0302957 0.7000
                               ***Turning on DIIS***
  2   -337.5885243086  -0.008933143148 0.02387466  0.00049974  0.0179018 0.0000
  3   -337.6054690599  -0.016944751296 0.00620408  0.00015177  0.0154680 0.0000
  4   -337.6079510709  -0.002482011017 0.00876265  0.00013013  0.0053767 0.0000
  5   -337.6083568400  -0.000405769011 0.00796055  0.00010852  0.0038570 0.0000
  6   -337.6085431238  -0.000186283868 0.00668335  0.00009003  0.0023476 0.0000
  7   -337.6086283610  -0.000085237174 0.00481246  0.00006312  0.0014319 0.0000
  8   -337.6086608469  -0.000032485932 0.00560173  0.00007291  0.0008019 0.0000
               *** Restarting incremental Fock matrix formation ***
                                   *** Resetting DIIS ***
  9   -337.6086734475  -0.000012600544 0.00072052  0.00001035  0.0001913 0.0000
 10   -337.6086745143  -0.000001066845 0.00024696  0.00000349  0.0001350 0.0000
 11   -337.6086748588  -0.000000344508 0.00034730  0.00000499  0.0000734 0.0000
 12   -337.6086751290  -0.000000270158 0.00012914  0.00000221  0.0000230 0.0000
 13   -337.6086751554  -0.000000026407 0.00005392  0.00000061  0.0000075 0.0000
 14   -337.6086751561  -0.000000000721 0.00001057  0.00000018  0.0000028 0.0000
 15   -337.6086751563  -0.000000000144 0.00000185  0.00000003  0.0000012 0.0000
                 **** Energy Check signals convergence ****

               *****************************************************
               *                     SUCCESS                       *
               *           SCF CONVERGED AFTER  16 CYCLES          *
               *****************************************************

Old exchange energy                            =    -10.534007232 Eh
New exchange energy                            =    -10.534006340 Eh
Exchange energy change after final integration =      0.000000892 Eh
Total energy after final integration           =   -337.608674262 Eh
Final COS-X integration done in                =     0.379 sec

----------------
TOTAL SCF ENERGY
----------------

Total Energy       :         -337.60867426 Eh           -9186.79907 eV

Components:
Nuclear Repulsion  :          122.08365707 Eh            3322.06520 eV
Electronic Energy  :         -459.69233133 Eh          -12508.86427 eV
One Electron Energy:         -710.97397279 Eh          -19346.58536 eV
Two Electron Energy:          251.28164146 Eh            6837.72109 eV
Max COSX asymmetry :            0.00000048 Eh               0.00001 eV

Virial components:
Potential Energy   :         -674.13068297 Eh          -18344.02848 eV
Kinetic Energy     :          336.52200870 Eh            9157.22940 eV
Virial Ratio       :            2.00322911


DFT components:
N(Alpha)           :       16.999817355007 electrons
N(Beta)            :       15.999916954170 electrons
N(Total)           :       32.999734309177 electrons
E(XC)              :      -26.184618540973 Eh       
DFET-embed. en.    :        0.000000000000 Eh       

---------------
SCF CONVERGENCE
---------------

  Last Energy change         ...    1.9963e-09  Tolerance :   1.0000e-08
  Last MAX-Density change    ...    0.0000e+00  Tolerance :   1.0000e-07
  Last RMS-Density change    ...    0.0000e+00  Tolerance :   5.0000e-09
  Last DIIS Error            ...    6.8124e-07  Tolerance :   5.0000e-07

             **** THE GBW FILE WAS UPDATED (/beegfs/scratch/ispackman/PFAS_EPR_calcs/benchmark/JChemEd_CF3_radical/CF3_radical_118.5_degrees_IN-PROGRESS/CF3_radical_118.5_degrees.gbw) ****
             **** DENSITY /beegfs/scratch/ispackman/PFAS_EPR_calcs/benchmark/JChemEd_CF3_radical/CF3_radical_118.5_degrees_IN-PROGRESS/CF3_radical_118.5_degrees.scfp WAS UPDATED ****
             **** ENERGY FILE WAS UPDATED (/beegfs/scratch/ispackman/PFAS_EPR_calcs/benchmark/JChemEd_CF3_radical/CF3_radical_118.5_degrees_IN-PROGRESS/CF3_radical_118.5_degrees.en.tmp) ****
----------------------
UHF SPIN CONTAMINATION
----------------------

Warning: in a DFT calculation there is little theoretical justification to 
         calculate <S**2> as in Hartree-Fock theory. We will do it anyways
         but you should keep in mind that the values have only limited relevance

Expectation value of <S**2>     :     0.752669
Ideal value S*(S+1) for S=0.5   :     0.750000
Deviation                       :     0.002669

             **** THE GBW FILE WAS UPDATED (/beegfs/scratch/ispackman/PFAS_EPR_calcs/benchmark/JChemEd_CF3_radical/CF3_radical_118.5_degrees_IN-PROGRESS/CF3_radical_118.5_degrees.gbw) ****
             **** DENSITY /beegfs/scratch/ispackman/PFAS_EPR_calcs/benchmark/JChemEd_CF3_radical/CF3_radical_118.5_degrees_IN-PROGRESS/CF3_radical_118.5_degrees.scfp WAS UPDATED ****
----------------
ORBITAL ENERGIES
----------------
                 SPIN UP ORBITALS
  NO   OCC          E(Eh)            E(eV) 
   0   1.0000     -24.858064      -676.4223 
   1   1.0000     -24.858053      -676.4220 
   2   1.0000     -24.858041      -676.4217 
   3   1.0000     -10.518222      -286.2154 
   4   1.0000      -1.458560       -39.6894 
   5   1.0000      -1.387790       -37.7637 
   6   1.0000      -1.387787       -37.7636 
   7   1.0000      -0.834415       -22.7056 
   8   1.0000      -0.733189       -19.9511 
   9   1.0000      -0.733182       -19.9509 
  10   1.0000      -0.696298       -18.9472 
  11   1.0000      -0.601999       -16.3812 
  12   1.0000      -0.601995       -16.3811 
  13   1.0000      -0.587966       -15.9994 
  14   1.0000      -0.587958       -15.9992 
  15   1.0000      -0.555375       -15.1125 
  16   1.0000      -0.304059        -8.2739 
  17   0.0000       0.056747         1.5442 
  18   0.0000       0.100174         2.7259 
  19   0.0000       0.100175         2.7259 
  20   0.0000       0.119606         3.2546 
  21   0.0000       0.151368         4.1189 
  22   0.0000       0.154007         4.1907 
  23   0.0000       0.154007         4.1907 
  24   0.0000       0.172697         4.6993 
  25   0.0000       0.172699         4.6994 
  26   0.0000       0.188052         5.1171 
  27   0.0000       0.237432         6.4609 
  28   0.0000       0.286515         7.7965 
  29   0.0000       0.286522         7.7966 
  30   0.0000       0.322471         8.7749 
  31   0.0000       0.351980         9.5779 
  32   0.0000       0.373789        10.1713 
  33   0.0000       0.373791        10.1714 
  34   0.0000       0.387403        10.5418 
  35   0.0000       0.387419        10.5422 
  36   0.0000       0.403412        10.9774 
  37   0.0000       0.440098        11.9757 
  38   0.0000       0.440099        11.9757 
  39   0.0000       0.478197        13.0124 
  40   0.0000       0.495468        13.4824 
  41   0.0000       0.495474        13.4825 
  42   0.0000       0.641872        17.4662 
  43   0.0000       0.641873        17.4663 
  44   0.0000       0.646565        17.5939 
  45   0.0000       0.667325        18.1588 
  46   0.0000       0.667327        18.1589 
  47   0.0000       0.718795        19.5594 
  48   0.0000       0.725145        19.7322 
  49   0.0000       0.739379        20.1195 
  50   0.0000       0.760714        20.7001 
  51   0.0000       0.760720        20.7002 
  52   0.0000       0.795732        21.6530 
  53   0.0000       0.795733        21.6530 
  54   0.0000       0.856842        23.3159 
  55   0.0000       0.856844        23.3159 
  56   0.0000       0.868794        23.6411 
  57   0.0000       0.959705        26.1149 
  58   0.0000       0.959706        26.1149 
  59   0.0000       0.978360        26.6225 
  60   0.0000       1.043945        28.4072 
  61   0.0000       1.043949        28.4073 
  62   0.0000       1.054651        28.6985 
  63   0.0000       1.142868        31.0990 
  64   0.0000       1.142871        31.0991 
  65   0.0000       1.186259        32.2797 
  66   0.0000       1.262891        34.3650 
  67   0.0000       1.274228        34.6735 
  68   0.0000       1.274231        34.6736 
  69   0.0000       1.287829        35.0436 
  70   0.0000       1.301239        35.4085 
  71   0.0000       1.301253        35.4089 
  72   0.0000       1.508470        41.0476 
  73   0.0000       1.508479        41.0478 
  74   0.0000       1.710666        46.5496 
  75   0.0000       2.086270        56.7703 
  76   0.0000       2.156645        58.6853 
  77   0.0000       2.156648        58.6854 
  78   0.0000       2.174222        59.1636 
  79   0.0000       2.196964        59.7824 
  80   0.0000       2.196977        59.7828 
  81   0.0000       2.296272        62.4847 
  82   0.0000       2.308338        62.8131 
  83   0.0000       2.416218        65.7486 
  84   0.0000       2.416234        65.7491 
  85   0.0000       2.495802        67.9142 
  86   0.0000       2.539211        69.0954 
  87   0.0000       2.539231        69.0960 
  88   0.0000       2.774430        75.4961 
  89   0.0000       2.774436        75.4963 
  90   0.0000       2.809193        76.4420 
  91   0.0000       2.932295        79.7918 
  92   0.0000       2.932295        79.7918 
  93   0.0000       3.115552        84.7785 
  94   0.0000       3.175694        86.4150 
  95   0.0000       3.175737        86.4162 
  96   0.0000       3.243306        88.2548 
  97   0.0000       3.349751        91.1514 
  98   0.0000       3.349790        91.1524 
  99   0.0000       3.367808        91.6427 
 100   0.0000       3.393878        92.3521 
 101   0.0000       3.393926        92.3534 
 102   0.0000       3.487862        94.9095 
 103   0.0000       3.487926        94.9113 
 104   0.0000       3.742682       101.8436 
 105   0.0000       3.767465       102.5179 
 106   0.0000       3.767505       102.5190 
 107   0.0000       3.888894       105.8222 
 108   0.0000       3.906460       106.3002 
 109   0.0000       3.906578       106.3034 
 110   0.0000       4.117597       112.0455 
 111   0.0000       4.117634       112.0465 
 112   0.0000       4.279438       116.4494 
 113   0.0000       4.397033       119.6493 
 114   0.0000       5.134132       139.7068 
 115   0.0000       5.515188       150.0759 
 116   0.0000       5.515252       150.0776 
 117   0.0000       6.874561       187.0663 
 118   0.0000       6.904421       187.8789 
 119   0.0000       6.904422       187.8789 
 120   0.0000       6.907506       187.9628 
 121   0.0000       6.913718       188.1318 
 122   0.0000       6.914210       188.1452 
 123   0.0000       6.914232       188.1458 
 124   0.0000       6.949428       189.1035 
 125   0.0000       6.949484       189.1051 
 126   0.0000       7.042277       191.6301 
 127   0.0000       7.066861       192.2991 
 128   0.0000       7.066885       192.2997 
 129   0.0000       7.171655       195.1507 
 130   0.0000       7.171659       195.1508 
 131   0.0000       7.301685       198.6889 
 132   0.0000       7.435962       202.3428 
 133   0.0000       7.435984       202.3434 
 134   0.0000       7.561747       205.7656 
 135   0.0000       7.561782       205.7666 
 136   0.0000       7.670765       208.7321 
 137   0.0000       8.007005       217.8817 
 138   0.0000       8.474558       230.6045 
 139   0.0000       8.517964       231.7856 
 140   0.0000       8.517988       231.7862 
 141   0.0000       8.576055       233.3663 
 142   0.0000       8.576066       233.3666 
 143   0.0000       8.582932       233.5535 
 144   0.0000       8.813420       239.8254 
 145   0.0000       8.854407       240.9407 
 146   0.0000       8.854411       240.9408 
 147   0.0000       9.025075       245.5848 
 148   0.0000       9.025117       245.5859 
 149   0.0000       9.106365       247.7968 
 150   0.0000       9.274692       252.3772 
 151   0.0000       9.344503       254.2769 
 152   0.0000       9.344510       254.2770 
 153   0.0000      23.016322       626.3060 
 154   0.0000      57.153884      1555.2362 
 155   0.0000      57.324068      1559.8672 
 156   0.0000      57.324079      1559.8675 

                 SPIN DOWN ORBITALS
  NO   OCC          E(Eh)            E(eV) 
   0   1.0000     -24.855235      -676.3453 
   1   1.0000     -24.855223      -676.3450 
   2   1.0000     -24.855206      -676.3445 
   3   1.0000     -10.505078      -285.8577 
   4   1.0000      -1.447648       -39.3925 
   5   1.0000      -1.380290       -37.5596 
   6   1.0000      -1.380278       -37.5593 
   7   1.0000      -0.813704       -22.1420 
   8   1.0000      -0.724996       -19.7281 
   9   1.0000      -0.724979       -19.7277 
  10   1.0000      -0.658871       -17.9288 
  11   1.0000      -0.594691       -16.1824 
  12   1.0000      -0.594689       -16.1823 
  13   1.0000      -0.572375       -15.5751 
  14   1.0000      -0.572363       -15.5748 
  15   1.0000      -0.552431       -15.0324 
  16   0.0000       0.042251         1.1497 
  17   0.0000       0.074487         2.0269 
  18   0.0000       0.103945         2.8285 
  19   0.0000       0.103946         2.8285 
  20   0.0000       0.132931         3.6172 
  21   0.0000       0.157416         4.2835 
  22   0.0000       0.157416         4.2835 
  23   0.0000       0.163633         4.4527 
  24   0.0000       0.179387         4.8814 
  25   0.0000       0.179387         4.8814 
  26   0.0000       0.210263         5.7216 
  27   0.0000       0.240259         6.5378 
  28   0.0000       0.296603         8.0710 
  29   0.0000       0.296610         8.0712 
  30   0.0000       0.328988         8.9522 
  31   0.0000       0.362529         9.8649 
  32   0.0000       0.376565        10.2468 
  33   0.0000       0.376566        10.2469 
  34   0.0000       0.404672        11.0117 
  35   0.0000       0.404699        11.0124 
  36   0.0000       0.419803        11.4234 
  37   0.0000       0.441010        12.0005 
  38   0.0000       0.441010        12.0005 
  39   0.0000       0.483663        13.1611 
  40   0.0000       0.495159        13.4739 
  41   0.0000       0.495162        13.4741 
  42   0.0000       0.644266        17.5314 
  43   0.0000       0.644266        17.5314 
  44   0.0000       0.655530        17.8379 
  45   0.0000       0.668605        18.1937 
  46   0.0000       0.668610        18.1938 
  47   0.0000       0.719531        19.5794 
  48   0.0000       0.733831        19.9686 
  49   0.0000       0.738857        20.1053 
  50   0.0000       0.764788        20.8109 
  51   0.0000       0.764792        20.8110 
  52   0.0000       0.799885        21.7660 
  53   0.0000       0.799887        21.7660 
  54   0.0000       0.859580        23.3904 
  55   0.0000       0.859585        23.3905 
  56   0.0000       0.871211        23.7068 
  57   0.0000       0.972097        26.4521 
  58   0.0000       0.972103        26.4523 
  59   0.0000       0.991465        26.9791 
  60   0.0000       1.046142        28.4670 
  61   0.0000       1.046142        28.4670 
  62   0.0000       1.058712        28.8090 
  63   0.0000       1.145058        31.1586 
  64   0.0000       1.145063        31.1587 
  65   0.0000       1.192126        32.4394 
  66   0.0000       1.262749        34.3611 
  67   0.0000       1.277021        34.7495 
  68   0.0000       1.277035        34.7499 
  69   0.0000       1.301130        35.4055 
  70   0.0000       1.315322        35.7917 
  71   0.0000       1.315326        35.7918 
  72   0.0000       1.517388        41.2902 
  73   0.0000       1.517406        41.2907 
  74   0.0000       1.765438        48.0400 
  75   0.0000       2.097286        57.0701 
  76   0.0000       2.165854        58.9359 
  77   0.0000       2.165883        58.9367 
  78   0.0000       2.175437        59.1967 
  79   0.0000       2.206843        60.0513 
  80   0.0000       2.206849        60.0514 
  81   0.0000       2.299202        62.5645 
  82   0.0000       2.329358        63.3851 
  83   0.0000       2.426480        66.0279 
  84   0.0000       2.426498        66.0284 
  85   0.0000       2.504716        68.1568 
  86   0.0000       2.549616        69.3786 
  87   0.0000       2.549643        69.3793 
  88   0.0000       2.785447        75.7959 
  89   0.0000       2.785516        75.7978 
  90   0.0000       2.829014        76.9814 
  91   0.0000       2.937064        79.9216 
  92   0.0000       2.937065        79.9216 
  93   0.0000       3.162504        86.0561 
  94   0.0000       3.198824        87.0444 
  95   0.0000       3.198844        87.0450 
  96   0.0000       3.264754        88.8385 
  97   0.0000       3.371323        91.7384 
  98   0.0000       3.371436        91.7414 
  99   0.0000       3.371553        91.7446 
 100   0.0000       3.429063        93.3095 
 101   0.0000       3.429119        93.3111 
 102   0.0000       3.517418        95.7138 
 103   0.0000       3.517435        95.7143 
 104   0.0000       3.769634       102.5770 
 105   0.0000       3.774381       102.7061 
 106   0.0000       3.774426       102.7074 
 107   0.0000       3.896800       106.0373 
 108   0.0000       3.925493       106.8181 
 109   0.0000       3.925555       106.8198 
 110   0.0000       4.122178       112.1702 
 111   0.0000       4.122214       112.1711 
 112   0.0000       4.287585       116.6711 
 113   0.0000       4.405621       119.8830 
 114   0.0000       5.151731       140.1857 
 115   0.0000       5.525656       150.3607 
 116   0.0000       5.525757       150.3635 
 117   0.0000       6.877003       187.1328 
 118   0.0000       6.910137       188.0344 
 119   0.0000       6.910138       188.0344 
 120   0.0000       6.913636       188.1296 
 121   0.0000       6.918900       188.2728 
 122   0.0000       6.919480       188.2886 
 123   0.0000       6.919506       188.2893 
 124   0.0000       6.952328       189.1825 
 125   0.0000       6.952386       189.1840 
 126   0.0000       7.047262       191.7657 
 127   0.0000       7.069970       192.3837 
 128   0.0000       7.069991       192.3842 
 129   0.0000       7.176324       195.2777 
 130   0.0000       7.176326       195.2778 
 131   0.0000       7.308680       198.8793 
 132   0.0000       7.444587       202.5775 
 133   0.0000       7.444604       202.5780 
 134   0.0000       7.566825       205.9038 
 135   0.0000       7.566853       205.9045 
 136   0.0000       7.678195       208.9343 
 137   0.0000       8.012177       218.0224 
 138   0.0000       8.482827       230.8295 
 139   0.0000       8.528303       232.0669 
 140   0.0000       8.528325       232.0675 
 141   0.0000       8.585805       233.6316 
 142   0.0000       8.585813       233.6319 
 143   0.0000       8.590460       233.7583 
 144   0.0000       8.824321       240.1220 
 145   0.0000       8.864371       241.2118 
 146   0.0000       8.864379       241.2120 
 147   0.0000       9.027882       245.6612 
 148   0.0000       9.027927       245.6624 
 149   0.0000       9.111310       247.9314 
 150   0.0000       9.280673       252.5400 
 151   0.0000       9.349123       254.4026 
 152   0.0000       9.349133       254.4029 
 153   0.0000      23.039714       626.9425 
 154   0.0000      57.156686      1555.3125 
 155   0.0000      57.326856      1559.9430 
 156   0.0000      57.326866      1559.9433 

                    ********************************
                    * MULLIKEN POPULATION ANALYSIS *
                    ********************************

--------------------------------------------
MULLIKEN ATOMIC CHARGES AND SPIN POPULATIONS
--------------------------------------------
   0 C :    0.502970    0.877517
   1 F :   -0.167584    0.040804
   2 F :   -0.167693    0.040839
   3 F :   -0.167692    0.040840
Sum of atomic charges         :    0.0000000
Sum of atomic spin populations:    1.0000000

-----------------------------------------------------
MULLIKEN REDUCED ORBITAL CHARGES AND SPIN POPULATIONS
-----------------------------------------------------
CHARGE
  0 C s       :     3.059013  s :     3.059013
      pz      :     1.054357  p :     2.113741
      px      :     0.529774
      py      :     0.529611
      dz2     :     0.027134  d :     0.285995
      dxz     :     0.047657
      dyz     :     0.047644
      dx2y2   :     0.081777
      dxy     :     0.081784
      f0      :     0.004614  f :     0.038281
      f+1     :     0.002537
      f-1     :     0.002536
      f+2     :     0.004495
      f-2     :     0.004495
      f+3     :     0.005485
      f-3     :     0.014120
  1 F s       :     3.953606  s :     3.953606
      pz      :     1.881275  p :     5.198633
      px      :     1.407022
      py      :     1.910336
      dz2     :     0.001022  d :     0.014543
      dxz     :     0.009004
      dyz     :    -0.000162
      dx2y2   :     0.006488
      dxy     :    -0.001808
      f0      :     0.000085  f :     0.000803
      f+1     :     0.000159
      f-1     :     0.000010
      f+2     :     0.000145
      f-2     :     0.000005
      f+3     :     0.000250
      f-3     :     0.000148
  2 F s       :     3.953639  s :     3.953639
      pz      :     1.881252  p :     5.198695
      px      :     1.784568
      py      :     1.532875
      dz2     :     0.001026  d :     0.014555
      dxz     :     0.002128
      dyz     :     0.006711
      dx2y2   :     0.000270
      dxy     :     0.004420
      f0      :     0.000085  f :     0.000803
      f+1     :     0.000048
      f-1     :     0.000122
      f+2     :     0.000040
      f-2     :     0.000110
      f+3     :     0.000250
      f-3     :     0.000148
  3 F s       :     3.953639  s :     3.953639
      pz      :     1.881252  p :     5.198695
      px      :     1.784568
      py      :     1.532875
      dz2     :     0.001026  d :     0.014555
      dxz     :     0.002128
      dyz     :     0.006711
      dx2y2   :     0.000270
      dxy     :     0.004420
      f0      :     0.000085  f :     0.000803
      f+1     :     0.000048
      f-1     :     0.000122
      f+2     :     0.000040
      f-2     :     0.000110
      f+3     :     0.000250
      f-3     :     0.000148

SPIN
  0 C s       :     0.156669  s :     0.156669
      pz      :     0.685938  p :     0.712722
      px      :     0.013397
      py      :     0.013387
      dz2     :     0.011730  d :     0.009237
      dxz     :    -0.001973
      dyz     :    -0.001973
      dx2y2   :     0.000731
      dxy     :     0.000721
      f0      :    -0.000521  f :    -0.001110
      f+1     :    -0.000591
      f-1     :    -0.000592
      f+2     :     0.000007
      f-2     :     0.000006
      f+3     :     0.000465
      f-3     :     0.000116
  1 F s       :     0.001129  s :     0.001129
      pz      :     0.052360  p :     0.036279
      px      :    -0.014645
      py      :    -0.001436
      dz2     :     0.000159  d :     0.003335
      dxz     :     0.002881
      dyz     :     0.000047
      dx2y2   :     0.000265
      dxy     :    -0.000018
      f0      :     0.000013  f :     0.000061
      f+1     :     0.000009
      f-1     :    -0.000002
      f+2     :     0.000036
      f-2     :     0.000000
      f+3     :     0.000003
      f-3     :     0.000001
  2 F s       :     0.001120  s :     0.001120
      pz      :     0.052362  p :     0.036325
      px      :    -0.004737
      py      :    -0.011299
      dz2     :     0.000158  d :     0.003333
      dxz     :     0.000756
      dyz     :     0.002174
      dx2y2   :     0.000051
      dxy     :     0.000194
      f0      :     0.000013  f :     0.000061
      f+1     :     0.000001
      f-1     :     0.000006
      f+2     :     0.000009
      f-2     :     0.000027
      f+3     :     0.000004
      f-3     :     0.000001
  3 F s       :     0.001120  s :     0.001120
      pz      :     0.052362  p :     0.036326
      px      :    -0.004737
      py      :    -0.011299
      dz2     :     0.000158  d :     0.003333
      dxz     :     0.000756
      dyz     :     0.002174
      dx2y2   :     0.000051
      dxy     :     0.000194
      f0      :     0.000013  f :     0.000061
      f+1     :     0.000001
      f-1     :     0.000006
      f+2     :     0.000009
      f-2     :     0.000027
      f+3     :     0.000004
      f-3     :     0.000001


                     *******************************
                     * LOEWDIN POPULATION ANALYSIS *
                     *******************************

-------------------------------------------
LOEWDIN ATOMIC CHARGES AND SPIN POPULATIONS
-------------------------------------------
   0 C :   -0.441728    0.616413
   1 F :    0.147255    0.127830
   2 F :    0.147236    0.127879
   3 F :    0.147236    0.127879

----------------------------------------------------
LOEWDIN REDUCED ORBITAL CHARGES AND SPIN POPULATIONS
----------------------------------------------------
CHARGE
  0 C s       :     2.623307  s :     2.623307
      pz      :     0.882968  p :     2.302859
      px      :     0.709961
      py      :     0.709930
      dz2     :     0.149533  d :     1.270832
      dxz     :     0.177282
      dyz     :     0.177283
      dx2y2   :     0.383365
      dxy     :     0.383369
      f0      :     0.022106  f :     0.244731
      f+1     :     0.018797
      f-1     :     0.018796
      f+2     :     0.026804
      f-2     :     0.026804
      f+3     :     0.052888
      f-3     :     0.078536
  1 F s       :     3.564186  s :     3.564186
      pz      :     1.778535  p :     5.093085
      px      :     1.531939
      py      :     1.782611
      dz2     :     0.023066  d :     0.193465
      dxz     :     0.070202
      dyz     :     0.001651
      dx2y2   :     0.046423
      dxy     :     0.052122
      f0      :     0.000257  f :     0.002009
      f+1     :     0.000346
      f-1     :     0.000023
      f+2     :     0.000489
      f-2     :     0.000018
      f+3     :     0.000522
      f-3     :     0.000354
  2 F s       :     3.564185  s :     3.564185
      pz      :     1.778530  p :     5.093103
      px      :     1.719957
      py      :     1.594616
      dz2     :     0.023065  d :     0.193466
      dxz     :     0.018789
      dyz     :     0.053066
      dx2y2   :     0.050698
      dxy     :     0.047848
      f0      :     0.000257  f :     0.002009
      f+1     :     0.000104
      f-1     :     0.000266
      f+2     :     0.000135
      f-2     :     0.000371
      f+3     :     0.000522
      f-3     :     0.000354
  3 F s       :     3.564185  s :     3.564185
      pz      :     1.778530  p :     5.093103
      px      :     1.719957
      py      :     1.594616
      dz2     :     0.023065  d :     0.193466
      dxz     :     0.018789
      dyz     :     0.053066
      dx2y2   :     0.050698
      dxy     :     0.047848
      f0      :     0.000257  f :     0.002009
      f+1     :     0.000104
      f-1     :     0.000266
      f+2     :     0.000135
      f-2     :     0.000371
      f+3     :     0.000522
      f-3     :     0.000354

SPIN
  0 C s       :     0.070337  s :     0.070337
      pz      :     0.502055  p :     0.518895
      px      :     0.008422
      py      :     0.008418
      dz2     :     0.028787  d :     0.019343
      dxz     :    -0.004019
      dyz     :    -0.004018
      dx2y2   :    -0.000701
      dxy     :    -0.000704
      f0      :     0.003754  f :     0.007837
      f+1     :    -0.000512
      f-1     :    -0.000512
      f+2     :    -0.000138
      f-2     :    -0.000139
      f+3     :     0.005397
      f-3     :    -0.000011
  1 F s       :     0.010245  s :     0.010245
      pz      :     0.072335  p :     0.067437
      px      :    -0.004346
      py      :    -0.000552
      dz2     :     0.001461  d :     0.049485
      dxz     :     0.045707
      dyz     :    -0.000068
      dx2y2   :     0.002224
      dxy     :     0.000161
      f0      :     0.000191  f :     0.000663
      f+1     :     0.000058
      f-1     :     0.000000
      f+2     :     0.000379
      f-2     :    -0.000000
      f+3     :     0.000027
      f-3     :     0.000007
  2 F s       :     0.010245  s :     0.010245
      pz      :     0.072335  p :     0.067485
      px      :    -0.001495
      py      :    -0.003355
      dz2     :     0.001461  d :     0.049486
      dxz     :     0.011376
      dyz     :     0.034265
      dx2y2   :     0.000675
      dxy     :     0.001708
      f0      :     0.000191  f :     0.000663
      f+1     :     0.000015
      f-1     :     0.000044
      f+2     :     0.000095
      f-2     :     0.000284
      f+3     :     0.000027
      f-3     :     0.000007
  3 F s       :     0.010245  s :     0.010245
      pz      :     0.072335  p :     0.067485
      px      :    -0.001495
      py      :    -0.003355
      dz2     :     0.001461  d :     0.049486
      dxz     :     0.011376
      dyz     :     0.034265
      dx2y2   :     0.000675
      dxy     :     0.001708
      f0      :     0.000191  f :     0.000663
      f+1     :     0.000015
      f-1     :     0.000044
      f+2     :     0.000095
      f-2     :     0.000284
      f+3     :     0.000027
      f-3     :     0.000007


                      *****************************
                      * MAYER POPULATION ANALYSIS *
                      *****************************

  NA   - Mulliken gross atomic population
  ZA   - Total nuclear charge
  QA   - Mulliken gross atomic charge
  VA   - Mayer's total valence
  BVA  - Mayer's bonded valence
  FA   - Mayer's free valence

  ATOM       NA         ZA         QA         VA         BVA        FA
  0 C      5.4970     6.0000     0.5030     3.8478     3.1445     0.7033
  1 F      9.1676     9.0000    -0.1676     1.0778     1.0721     0.0058
  2 F      9.1677     9.0000    -0.1677     1.0777     1.0720     0.0057
  3 F      9.1677     9.0000    -0.1677     1.0777     1.0720     0.0057

  Mayer bond orders larger than 0.100000
B(  0-C ,  1-F ) :   1.0482 B(  0-C ,  2-F ) :   1.0482 B(  0-C ,  3-F ) :   1.0482 


-------
TIMINGS
-------

Total SCF time: 0 days 0 hours 0 min 13 sec 

Total time                  ....      13.931 sec
Sum of individual times     ....      13.096 sec  ( 94.0%)

Fock matrix formation       ....      11.244 sec  ( 80.7%)
  Split-RI-J                ....       1.389 sec  ( 12.4% of F)
  Chain of spheres X        ....       3.564 sec  ( 31.7% of F)
  XC integration            ....       2.558 sec  ( 22.8% of F)
    Basis function eval.    ....       0.152 sec  (  5.9% of XC)
    Density eval.           ....       0.197 sec  (  7.7% of XC)
    XC-Functional eval.     ....       0.085 sec  (  3.3% of XC)
    XC-Potential eval.      ....       0.376 sec  ( 14.7% of XC)
Diagonalization             ....       0.422 sec  (  3.0%)
Density matrix formation    ....       0.019 sec  (  0.1%)
Population analysis         ....       0.141 sec  (  1.0%)
Initial guess               ....       0.132 sec  (  0.9%)
Orbital Transformation      ....       0.000 sec  (  0.0%)
Orbital Orthonormalization  ....       0.000 sec  (  0.0%)
DIIS solution               ....       0.585 sec  (  4.2%)
Grid generation             ....       0.552 sec  (  4.0%)

Maximum memory used throughout the entire SCF-calculation: 63.1 MB


-------------------------------------------------------------------------------
                          DFT DISPERSION CORRECTION                            
                                                                               
                              DFTD3 V3.1  Rev 1                                
                              USING zero damping                               
-------------------------------------------------------------------------------
The omegaB97X-D3 functional is recognized. Fit by Chai et al.
Active option DFTDOPT                   ...         3   

molecular C6(AA) [au] = 165.841210 


            DFT-D V3
 parameters
 s6 scaling factor         :     1.0000 
 rs6 scaling factor        :     1.2810 
 s8 scaling factor         :     1.0000 
 rs8 scaling factor        :     1.0940 
 Damping factor alpha6     :    14.0000 
 Damping factor alpha8     :    16.0000 
 ad hoc parameters k1-k3   :    16.0000     1.3333    -4.0000 

 Edisp/kcal,au: -0.070434117203  -0.000112243898 
 E6   /kcal   :  -0.009111388 
 E8   /kcal   :  -0.061322729 
 % E8         :  87.063956180 

-------------------------   ----------------
Dispersion correction           -0.000112244
-------------------------   ----------------


-------------------------   --------------------
FINAL SINGLE POINT ENERGY      -337.608786505698
-------------------------   --------------------



           ************************************************************
           *        Program running with 18 parallel MPI-processes    *
           *              working on a common directory               *
           ************************************************************
------------------------------------------------------------------------------
                         ORCA SCF GRADIENT CALCULATION
------------------------------------------------------------------------------

 ... reading COSX grid (gridx3)
Gradient of the Kohn-Sham DFT energy:
Kohn-Sham wavefunction type      ... UKS
Hartree-Fock exchange scaling    ...    0.196
Number of operators              ...    2
Number of atoms                  ...    4
Basis set dimensions             ...  157
Integral neglect threshold       ... 2.5e-11
Integral primitive cutoff        ... 2.5e-12
SHARK Integral package           ... ON

Nuc. rep. gradient       (SHARK) ... done (  0.0 sec)
HCore & Overlap gradient (SHARK) ... done (  0.0 sec)
RI-J gradient            (SHARK) ... done (  0.2 sec)
COSX-gradient                    ... done (  0.5 sec)
Exchange-correlation gradient    ... done
Dispersion correction            ... done

------------------
CARTESIAN GRADIENT
------------------

WARNING: THERE ARE 3 CONSTRAINED CARTESIAN COORDINATES
   1   C   :    0.000084265    0.000000113   -0.082916260
   2   F   :    0.010002291   -0.000000027    0.027729281
   3   F   :   -0.004809566    0.009450911    0.027581453
   4   F   :   -0.004809747   -0.009450815    0.027581445

Difference to translation invariance:
           :    0.0004672426    0.0000001815   -0.0000240806

Difference to rotation invariance:
           :    0.0000000377   -0.0004819929   -0.0000005718

Norm of the cartesian gradient     ...    0.0974189308
RMS gradient                       ...    0.0281224229
MAX gradient                       ...    0.0829162602

-------
TIMINGS
-------

Total SCF gradient time            ...        1.190 sec

One electron gradient       ....       0.013 sec  (  1.1%)
RI-J Coulomb gradient       ....       0.172 sec  ( 14.5%)
COSX gradient               ....       0.455 sec  ( 38.2%)
XC gradient                 ....       0.197 sec  ( 16.5%)

Maximum memory used throughout the entire SCFGRAD-calculation: 37.2 MB
------------------------------------------------------------------------------
                         ORCA GEOMETRY RELAXATION STEP
------------------------------------------------------------------------------

Reading the OPT-File                    .... done
Getting information on internals        .... done
Copying old internal coords+grads       .... done
Making the new internal coordinates     .... (new redundants).... done
Validating the new internal coordinates .... (new redundants).... done
Calculating the B-matrix                .... done
Calculating the G,G- and P matrices     .... done
Transforming gradient to internals      .... done
Projecting the internal gradient        .... done
Number of atoms                         ....   4
Number of internal coordinates          ....   7
Current Energy                          ....  -337.608786506 Eh
Current gradient norm                   ....     0.097418931 Eh/bohr
Maximum allowed component of the step   ....  0.300
Current trust radius                    ....  0.300
Evaluating the initial hessian          ....  (Almloef) done
Projecting the Hessian                  .... done
Forming the augmented Hessian           .... done
Diagonalizing the augmented Hessian     .... done
Last element of RFO vector              ....  0.999847298
Lowest eigenvalues of augmented Hessian:
 -0.000209282  0.684895726  0.684895726  0.685105008 1000.000000000
Length of the computed step             ....  0.017477834
The final length of the internal step   ....  0.017477834
Converting the step to cartesian space:
 Initial RMS(Int)=    0.0066060003
Transforming coordinates:
 Iter   0:  RMS(Cart)=    0.0050140194 RMS(Int)=    0.0066060000
 Iter   1:  RMS(Cart)=    0.0000000027 RMS(Int)=    0.0000000049
Imposing constraints:
 Iter   0:  RMS(Cart)=    0.0000000003 RMS(Int)=    0.0000000034
CONVERGED
done
Storing new coordinates                 .... done

                                .--------------------.
          ----------------------|Geometry convergence|-------------------------
          Item                value                   Tolerance       Converged
          ---------------------------------------------------------------------
          RMS gradient        0.0045258039            0.0001000000      NO
          MAX gradient        0.0071576468            0.0003000000      NO
          RMS step            0.0066060003            0.0020000000      NO
          MAX step            0.0104475178            0.0040000000      NO
          ........................................................
          Max(Bonds)      0.0055      Max(Angles)    0.00
          Max(Dihed)        0.00      Max(Improp)    0.00
          ---------------------------------------------------------------------

The optimization has not yet converged - more geometry cycles are needed


    ---------------------------------------------------------------------------
                         Redundant Internal Coordinates
                            (Angstroem and degrees)

        Definition                    Value    dE/dq     Step     New-Value
    ----------------------------------------------------------------------------
     1. B(F   1,C   0)                1.3150  0.006397 -0.0049    1.3101   
     2. B(F   2,C   0)                1.3150  0.007158 -0.0055    1.3095   
     3. B(F   3,C   0)                1.3150  0.007158 -0.0055    1.3095   
     4. A(F   2,C   0,F   3)          118.50  0.020624   -0.00    118.50 C 
     5. A(F   1,C   0,F   2)          118.50  0.005027   -0.00    118.50 C 
     6. A(F   1,C   0,F   3)          118.50  0.005027   -0.00    118.50 C 
     7. I(F   1,F   3,F   2,C   0)     21.05 -0.069076   -0.00     21.05   
    ----------------------------------------------------------------------------

         *************************************************************
         *                GEOMETRY OPTIMIZATION CYCLE   2            *
         *************************************************************
---------------------------------
CARTESIAN COORDINATES (ANGSTROEM)
---------------------------------
  C     -0.000149   -0.000000   -0.000494
  F      1.299902   -0.000000   -0.162118
  F     -0.649876    1.125368   -0.162100
  F     -0.649876   -1.125368   -0.162100

----------------------------
CARTESIAN COORDINATES (A.U.)
----------------------------
  NO LB      ZA    FRAG     MASS         X           Y           Z
   0 C     6.0000    0    12.011   -0.000282   -0.000000   -0.000933
   1 F     9.0000    0    18.998    2.456458   -0.000000   -0.306360
   2 F     9.0000    0    18.998   -1.228088    2.126638   -0.306325
   3 F     9.0000    0    18.998   -1.228088   -2.126638   -0.306325

--------------------------------
INTERNAL COORDINATES (ANGSTROEM)
--------------------------------
 C      0   0   0     0.000000000000     0.00000000     0.00000000
 F      1   0   0     1.310059171858     0.00000000     0.00000000
 F      1   2   0     1.309471478437   118.49999999     0.00000000
 F      1   2   3     1.309471411675   118.49999999   155.87087297

---------------------------
INTERNAL COORDINATES (A.U.)
---------------------------
 C      0   0   0     0.000000000000     0.00000000     0.00000000
 F      1   0   0     2.475653054043     0.00000000     0.00000000
 F      1   2   0     2.474542474427   118.49999999     0.00000000
 F      1   2   3     2.474542348265   118.49999999   155.87087297



           ************************************************************
           *        Program running with 18 parallel MPI-processes    *
           *              working on a common directory               *
           ************************************************************
------------------------------------------------------------------------------
                   ___                                                        
                  /   \      - P O W E R E D   B Y -                         
                 /     \                                                     
                 |  |  |   _    _      __       _____    __    __             
                 |  |  |  | |  | |    /  \     |  _  \  |  |  /  |          
                  \  \/   | |  | |   /    \    | | | |  |  | /  /          
                 / \  \   | |__| |  /  /\  \   | |_| |  |  |/  /          
                |  |  |   |  __  | /  /__\  \  |    /   |      \           
                |  |  |   | |  | | |   __   |  |    \   |  |\   \          
                \     /   | |  | | |  |  |  |  | |\  \  |  | \   \       
                 \___/    |_|  |_| |__|  |__|  |_| \__\ |__|  \__/        
                                                                              
                      - O R C A' S   B I G   F R I E N D -                    
                                      &                                       
                       - I N T E G R A L  F E E D E R -                       
                                                                              
 v1 FN, 2020, v2 2021                                                         
------------------------------------------------------------------------------


Reading SHARK input file /beegfs/scratch/ispackman/PFAS_EPR_calcs/benchmark/JChemEd_CF3_radical/CF3_radical_118.5_degrees_IN-PROGRESS/CF3_radical_118.5_degrees.SHARKINP.tmp ... ok
----------------------
SHARK INTEGRAL PACKAGE
----------------------

Number of atoms                             ...      4
Number of basis functions                   ...    157
Number of shells                            ...     55
Maximum angular momentum                    ...      3
Integral batch strategy                     ... SHARK/LIBINT Hybrid
RI-J (if used) integral strategy            ... SPLIT-RIJ (Revised 2003 algorithm where possible)
Printlevel                                  ...      1
Contraction scheme used                     ... SEGMENTED contraction
Coulomb Range Separation                    ... NOT USED
Exchange Range Separation                   ... Long Range
   Mu parameter                             ...  0.250000
   Scaling (regular/separated)              ...  0.195728  0.804272
Finite Nucleus Model                        ... NOT USED
Auxiliary Coulomb fitting basis             ... AVAILABLE
   # of basis functions in Aux-J            ...    196
   # of shells in Aux-J                     ...     60
   Maximum angular momentum in Aux-J        ...      4
Auxiliary J/K fitting basis                 ... NOT available
Auxiliary Correlation fitting basis         ... NOT available
Auxiliary 'external' fitting basis          ... NOT available
Integral threshold                          ...     2.500000e-11
Primitive cut-off                           ...     2.500000e-12
Primitive pair pre-selection threshold      ...     2.500000e-12

Calculating pre-screening integrals         ... done (  0.0 sec) Dimension = 55
Organizing shell pair data                  ... done (  0.0 sec)
Shell pair information
Total number of shell pairs                 ...      1540
Shell pairs after pre-screening             ...      1492
Total number of primitive shell pairs       ...      4274
Primitive shell pairs kept                  ...      3443
          la=0 lb=0:    276 shell pairs
          la=1 lb=0:    354 shell pairs
          la=1 lb=1:    120 shell pairs
          la=2 lb=0:    276 shell pairs
          la=2 lb=1:    180 shell pairs
          la=2 lb=2:     78 shell pairs
          la=3 lb=0:     90 shell pairs
          la=3 lb=1:     60 shell pairs
          la=3 lb=2:     48 shell pairs
          la=3 lb=3:     10 shell pairs

Calculating one electron integrals          ... done (  0.0 sec)
Calculating RI/J V-Matrix + Cholesky decomp.... done (  0.0 sec)
Calculating Nuclear repulsion               ... done (  0.0 sec) ENN=    122.580755178507 Eh

SHARK setup successfully completed in   0.3 seconds

Maximum memory used throughout the entire GTOINT-calculation: 15.2 MB


           ************************************************************
           *        Program running with 18 parallel MPI-processes    *
           *              working on a common directory               *
           ************************************************************

Diagonalization of the overlap matrix:
Smallest eigenvalue                        ... 2.663e-04
Time for diagonalization                   ...    0.006 sec
Threshold for overlap eigenvalues          ... 1.000e-08
Number of eigenvalues below threshold      ... 0
Time for construction of square roots      ...    0.013 sec
Total time needed                          ...    0.020 sec

-------------------
DFT GRID GENERATION
-------------------

General Integration Accuracy     IntAcc      ... 4.388
Radial Grid Type                 RadialGrid  ... OptM3 with GC (2021)
Angular Grid (max. ang.)         AngularGrid ... 4 (Lebedev-302)
Angular grid pruning method      GridPruning ... 4 (adaptive)
Weight generation scheme         WeightScheme... Becke
Basis function cutoff            BFCut       ... 1.0000e-11
Integration weight cutoff        WCut        ... 1.0000e-14
Angular grids for H and He will be reduced by one unit
Partially contracted basis set               ... off
Rotationally invariant grid construction     ... off

Total number of grid points                  ...    25766
Total number of batches                      ...      405
Average number of points per batch           ...       63
Average number of grid points per atom       ...     6442
Time for grid setup =    0.147 sec

--------------------
COSX GRID GENERATION
--------------------

GRIDX 1
-------
General Integration Accuracy     IntAcc      ... 3.816
Radial Grid Type                 RadialGrid  ... OptM3 with GC (2021)
Angular Grid (max. ang.)         AngularGrid ... 1 (Lebedev-50)
Angular grid pruning method      GridPruning ... 4 (adaptive)
Weight generation scheme         WeightScheme... Becke
Basis function cutoff            BFCut       ... 1.0000e-11
Integration weight cutoff        WCut        ... 1.0000e-14
Angular grids for H and He will be reduced by one unit
Partially contracted basis set               ... on
Rotationally invariant grid construction     ... off

Total number of grid points                  ...     3271
Total number of batches                      ...       52
Average number of points per batch           ...       62
Average number of grid points per atom       ...      818
UseSFitting                                  ... on

GRIDX 2
-------
General Integration Accuracy     IntAcc      ... 4.020
Radial Grid Type                 RadialGrid  ... OptM3 with GC (2021)
Angular Grid (max. ang.)         AngularGrid ... 2 (Lebedev-110)
Angular grid pruning method      GridPruning ... 4 (adaptive)
Weight generation scheme         WeightScheme... Becke
Basis function cutoff            BFCut       ... 1.0000e-11
Integration weight cutoff        WCut        ... 1.0000e-14
Angular grids for H and He will be reduced by one unit
Partially contracted basis set               ... on
Rotationally invariant grid construction     ... off

Total number of grid points                  ...     9133
Total number of batches                      ...      145
Average number of points per batch           ...       62
Average number of grid points per atom       ...     2283
UseSFitting                                  ... on

GRIDX 3
-------
General Integration Accuracy     IntAcc      ... 4.338
Radial Grid Type                 RadialGrid  ... OptM3 with GC (2021)
Angular Grid (max. ang.)         AngularGrid ... 3 (Lebedev-194)
Angular grid pruning method      GridPruning ... 4 (adaptive)
Weight generation scheme         WeightScheme... Becke
Basis function cutoff            BFCut       ... 1.0000e-11
Integration weight cutoff        WCut        ... 1.0000e-14
Angular grids for H and He will be reduced by one unit
Partially contracted basis set               ... on
Rotationally invariant grid construction     ... off

[...]
  VA   - Mayer's total valence
  BVA  - Mayer's bonded valence
  FA   - Mayer's free valence

  ATOM       NA         ZA         QA         VA         BVA        FA
  0 C      5.4920     6.0000     0.5080     3.8447     3.1425     0.7022
  1 F      9.1694     9.0000    -0.1694     1.0752     1.0695     0.0058
  2 F      9.1693     9.0000    -0.1693     1.0755     1.0698     0.0058
  3 F      9.1693     9.0000    -0.1693     1.0755     1.0698     0.0058

  Mayer bond orders larger than 0.100000
B(  0-C ,  1-F ) :   1.0472 B(  0-C ,  2-F ) :   1.0476 B(  0-C ,  3-F ) :   1.0476 


-------
TIMINGS
-------

Total SCF time: 0 days 0 hours 0 min 4 sec 

Total time                  ....       4.994 sec
Sum of individual times     ....       4.328 sec  ( 86.7%)

Fock matrix formation       ....       3.419 sec  ( 68.5%)
  Split-RI-J                ....       0.526 sec  ( 15.4% of F)
  Chain of spheres X        ....       1.502 sec  ( 43.9% of F)
  XC integration            ....       0.625 sec  ( 18.3% of F)
    Basis function eval.    ....       0.044 sec  (  7.1% of XC)
    Density eval.           ....       0.054 sec  (  8.7% of XC)
    XC-Functional eval.     ....       0.023 sec  (  3.7% of XC)
    XC-Potential eval.      ....       0.074 sec  ( 11.8% of XC)
Diagonalization             ....       0.119 sec  (  2.4%)
Density matrix formation    ....       0.014 sec  (  0.3%)
Population analysis         ....       0.124 sec  (  2.5%)
Initial guess               ....       0.020 sec  (  0.4%)
Orbital Transformation      ....       0.000 sec  (  0.0%)
Orbital Orthonormalization  ....       0.011 sec  (  0.2%)
DIIS solution               ....       0.090 sec  (  1.8%)
Grid generation             ....       0.541 sec  ( 10.8%)

Maximum memory used throughout the entire SCF-calculation: 63.1 MB


-------------------------------------------------------------------------------
                          DFT DISPERSION CORRECTION                            
                                                                               
                              DFTD3 V3.1  Rev 1                                
                              USING zero damping                               
-------------------------------------------------------------------------------
The omegaB97X-D3 functional is recognized. Fit by Chai et al.
Active option DFTDOPT                   ...         3   

molecular C6(AA) [au] = 165.829742 


            DFT-D V3
 parameters
 s6 scaling factor         :     1.0000 
 rs6 scaling factor        :     1.2810 
 s8 scaling factor         :     1.0000 
 rs8 scaling factor        :     1.0940 
 Damping factor alpha6     :    14.0000 
 Damping factor alpha8     :    16.0000 
 ad hoc parameters k1-k3   :    16.0000     1.3333    -4.0000 

 Edisp/kcal,au: -0.067777586379  -0.000108010448 
 E6   /kcal   :  -0.008752736 
 E8   /kcal   :  -0.059024850 
 % E8         :  87.086090538 

-------------------------   ----------------
Dispersion correction           -0.000108010
-------------------------   ----------------


-------------------------   --------------------
FINAL SINGLE POINT ENERGY      -337.608908100839
-------------------------   --------------------

                                *** OPTIMIZATION RUN DONE ***

                            ***************************************
                            *     ORCA property calculations      *
                            ***************************************

                                    ---------------------
                                    Active property flags
                                    ---------------------
   (+) Dipole Moment


------------------------------------------------------------------------------
                       ORCA ELECTRIC PROPERTIES CALCULATION
------------------------------------------------------------------------------

Dipole Moment Calculation                       ... on
Quadrupole Moment Calculation                   ... off
Polarizability Calculation                      ... off
GBWName                                         ... /beegfs/scratch/ispackman/PFAS_EPR_calcs/benchmark/JChemEd_CF3_radical/CF3_radical_118.5_degrees_IN-PROGRESS/CF3_radical_118.5_degrees.gbw
Electron density                                ... /beegfs/scratch/ispackman/PFAS_EPR_calcs/benchmark/JChemEd_CF3_radical/CF3_radical_118.5_degrees_IN-PROGRESS/CF3_radical_118.5_degrees.scfp
The origin for moment calculation is the CENTER OF MASS  = ( 0.000046,  0.000000 -0.253155)

-------------
DIPOLE MOMENT
-------------
                                X             Y             Z
Electronic contribution:     -0.00155      -0.00000      -0.18825
Nuclear contribution   :     -0.00016      -0.00000       0.07811
                        -----------------------------------------
Total Dipole Moment    :     -0.00171      -0.00000      -0.11013
                        -----------------------------------------
Magnitude (a.u.)       :      0.11015
Magnitude (Debye)      :      0.27997



--------------------
Rotational spectrum 
--------------------
 
Rotational constants in cm-1:     0.349196     0.348859     0.175453 
Rotational constants in MHz : 10468.636366 10458.533542  5259.953769 

 Dipole components along the rotational axes: 
x,y,z [a.u.] :    -0.001703     0.000000    -0.110132 
x,y,z [Debye]:    -0.004328     0.000000    -0.279934 

 


           ************************************************************
           *        Program running with 18 parallel MPI-processes    *
           *              working on a common directory               *
           ************************************************************

-------------------------------------------------------------------------------
                               ORCA SCF HESSIAN
-------------------------------------------------------------------------------

                   --------- SHARK INITIALIZATION DONE ---------

Hessian of the Kohn-Sham DFT energy:
Kohn-Sham wavefunction type                      ... UKS
Hartree-Fock exchange scaling                    ...    0.196
Number of operators                              ...    2
Number of atoms                                  ...    4
Basis set dimensions                             ...  157
Integral neglect threshold                       ... 2.5e-11
Integral primitive cutoff                        ... 2.5e-12

Setting up DFT Hessian calculations              ... 

HESS GRID
---------

General Integration Accuracy     IntAcc      ... 4.629
Radial Grid Type                 RadialGrid  ... OptM3 with GC (2021)
Angular Grid (max. ang.)         AngularGrid ... 5 (Lebedev-434)
Angular grid pruning method      GridPruning ... 4 (adaptive)
Weight generation scheme         WeightScheme... Becke
Basis function cutoff            BFCut       ... 1.0000e-11
Integration weight cutoff        WCut        ... 1.0000e-14
Angular grids for H and He will be reduced by one unit
Partially contracted basis set               ... off
Rotationally invariant grid construction     ... off

Total number of grid points                  ...    39947
Total number of batches                      ...      627
Average number of points per batch           ...       63
Average number of grid points per atom       ...     9987

Building densities                               ... done   (      0.0 sec)
Calculating rho(r) on the grid                   ... done   (      0.1 sec)
Building xc-kernel on the grid                   ... done   (      0.1 sec)
                                                     done   (      0.6 sec)

Nuclear repulsion Hessian  (SHARK)               ... done   (      0.0 sec)

----------------------------------------------
Forming right-hand sides of CP-SCF equations     ...
----------------------------------------------
One electron integral derivatives  (SHARK)       ... done   (      0.0 sec)
Transforming the overlap derivative matrices     ... done   (      0.0 sec)
Making the Q(x) pseudodensities                  ... done   (      0.0 sec)
Adding the E*S(x)*S(y) terms to the Hessian      ... done   (      0.0 sec)
Calculating energy weighted overlap derivatives  ... done   (      0.0 sec)
Two electron integral derivatives (SHARK-RI)     ... done   (      2.5 sec)
Exchange-correlation integral derivatives        ... done   (      2.2 sec)
tr(F(y)Q(x)) contribution to the Hessian         ... done   (      0.0 sec)
Response fock operator R(S(x)) (SHARK-RIJCOSX)   ... done   (      0.9 sec)
XC Response fock operator R(S(x))                ... done   (      0.5 sec)
tr(F(y)S(x)) contribution to the Hessian         ... done   (      0.0 sec)
Transforming and finalizing RHSs                 ... done   (      0.0 sec)

----------------------------------------------
Solving the CP-SCF equations (RIJCOSX)           ...
----------------------------------------------
     CP-SCF ITERATION   0:   1.8782e-01 (   0.5 sec   0/ 12 done)
     CP-SCF ITERATION   1:   5.7951e-02 (   0.5 sec   0/ 12 done)
     CP-SCF ITERATION   2:   1.8443e-02 (   0.4 sec   0/ 12 done)
     CP-SCF ITERATION   3:   7.3033e-03 (   0.4 sec   0/ 12 done)
     CP-SCF ITERATION   4:   2.2597e-03 (   0.4 sec   0/ 12 done)
     CP-SCF ITERATION   5:   6.3720e-04 (   0.4 sec   1/ 12 done)
     CP-SCF ITERATION   6:   2.0944e-04 (   0.5 sec   5/ 12 done)
     CP-SCF ITERATION   7:   6.1371e-05 (   0.4 sec  12/ 12 done)
                    *** THE CP-SCF HAS CONVERGED ***

                                                 ... done   (      3.8 sec)
Forming perturbed density Hessian contributions  ... done   (      0.0 sec)
2nd integral derivative contribs (SHARK-RI)      ... done   (      6.3 sec)
Exchange-correlation Hessian                     ... done   (      0.9 sec)
Dispersion correction in the Hessian             ... done   (      0.1 sec)
Dipole derivatives                               ... (center of mass:  0.000046,  0.000000 -0.253155)done   (      0.1 sec)

Total SCF Hessian time: 0 days 0 hours 0 min 18 sec 

Writing the Hessian file to the disk             ... done


Maximum memory used throughout the entire SCFHESS-calculation: 141.5 MB

-----------------------
VIBRATIONAL FREQUENCIES
-----------------------

Scaling factor for frequencies =  1.000000000  (already applied!)

   0:         0.00 cm**-1
   1:         0.00 cm**-1
   2:         0.00 cm**-1
   3:         0.00 cm**-1
   4:         0.00 cm**-1
   5:         0.00 cm**-1
   6:       113.30 cm**-1
   7:       470.19 cm**-1
   8:       470.41 cm**-1
   9:       931.17 cm**-1
  10:      1387.64 cm**-1
  11:      1390.65 cm**-1


------------
NORMAL MODES
------------

These modes are the Cartesian displacements weighted by the diagonal matrix
M(i,i)=1/sqrt(m[i]) where m[i] is the mass of the displaced atom
Thus, these vectors are normalized but *not* orthogonal

                  0          1          2          3          4          5    
      0       0.000000   0.000000   0.000000   0.000000   0.000000   0.000000
      1       0.000000   0.000000   0.000000   0.000000   0.000000   0.000000
      2       0.000000   0.000000   0.000000   0.000000   0.000000   0.000000
      3       0.000000   0.000000   0.000000   0.000000   0.000000   0.000000
      4       0.000000   0.000000   0.000000   0.000000   0.000000   0.000000
      5       0.000000   0.000000   0.000000   0.000000   0.000000   0.000000
      6       0.000000   0.000000   0.000000   0.000000   0.000000   0.000000
      7       0.000000   0.000000   0.000000   0.000000   0.000000   0.000000
      8       0.000000   0.000000   0.000000   0.000000   0.000000   0.000000
      9       0.000000   0.000000   0.000000   0.000000   0.000000   0.000000
     10       0.000000   0.000000   0.000000   0.000000   0.000000   0.000000
     11       0.000000   0.000000   0.000000   0.000000   0.000000   0.000000
                  6          7          8          9         10         11    
      0       0.000582  -0.352561  -0.000093  -0.003738   0.904208  -0.000018
      1      -0.000000   0.000093  -0.352481  -0.000001  -0.000018  -0.904227
      2      -0.902644  -0.001010  -0.000000   0.368620   0.001402  -0.000000
      3       0.160063  -0.460772  -0.000121   0.532192  -0.341925   0.000007
      4       0.000000  -0.000160   0.609139   0.000000   0.000001   0.037724
      5       0.190158  -0.018253  -0.000005  -0.077849   0.047086  -0.000001
      6      -0.080215   0.341713   0.463546  -0.264915  -0.114871  -0.132338
      7       0.138184   0.463287  -0.193024   0.459572   0.133676   0.266972
      8       0.190258   0.009450  -0.016008  -0.077601  -0.023987  -0.041050
      9      -0.080215   0.341957  -0.463366  -0.264915  -0.114866   0.132343
     10      -0.138184  -0.463185  -0.193268  -0.459572  -0.133665   0.266978
     11       0.190258   0.009441   0.016012  -0.077601  -0.023986   0.041051


-----------
IR SPECTRUM
-----------

 Mode   freq       eps      Int      T**2         TX        TY        TZ
       cm**-1   L/(mol*cm) km/mol    a.u.
----------------------------------------------------------------------------
  6:    113.30   0.000386    1.95  0.001062  ( 0.000183 -0.000000 -0.032590)
  7:    470.19   0.000653    3.30  0.000433  (-0.020819  0.000005  0.000003)
  8:    470.41   0.000649    3.28  0.000430  (-0.000006 -0.020747  0.000000)
  9:    931.17   0.000362    1.83  0.000121  (-0.000511 -0.000000  0.011003)
 10:   1387.64   0.069810  352.79  0.015699  ( 0.125297 -0.000003  0.000094)
 11:   1390.65   0.069909  353.29  0.015688  (-0.000003 -0.125251 -0.000000)

* The epsilon (eps) is given for a Dirac delta lineshape.
** The dipole moment derivative (T) already includes vibrational overlap.

The first frequency considered to be a vibration is 6
The total number of vibrations considered is 6


--------------------------
THERMOCHEMISTRY AT 298.15K
--------------------------

Temperature         ... 298.15 K
Pressure            ... 1.00 atm
Total Mass          ... 69.00 AMU

Throughout the following assumptions are being made:
  (1) The electronic state is orbitally nondegenerate
      but the spin degeneracy is treated
  (2) There are no thermally accessible electronically excited states
  (3) Hindered rotations indicated by low frequency modes are not
      treated as such but are treated as vibrations and this may
      cause some error
  (4) All equations used are the standard statistical mechanics
      equations for an ideal gas
  (5) All vibrations are strictly harmonic

freq.     113.30  E(vib)   ...       0.45 
freq.     470.19  E(vib)   ...       0.16 
freq.     470.41  E(vib)   ...       0.15 
freq.     931.17  E(vib)   ...       0.03 
freq.    1387.64  E(vib)   ...       0.00 
freq.    1390.65  E(vib)   ...       0.00 

------------
INNER ENERGY
------------

The inner energy is: U= E(el) + E(ZPE) + E(vib) + E(rot) + E(trans)
    E(el)   - is the total energy from the electronic structure calculation
              = E(kin-el) + E(nuc-el) + E(el-el) + E(nuc-nuc)
    E(ZPE)  - the the zero temperature vibrational energy from the frequency calculation
    E(vib)  - the the finite temperature correction to E(ZPE) due to population
              of excited vibrational states
    E(rot)  - is the rotational thermal energy
    E(trans)- is the translational thermal energy

Summary of contributions to the inner energy U:
Electronic energy                ...   -337.60890810 Eh
Zero point energy                ...      0.01085173 Eh       6.81 kcal/mol
Thermal vibrational correction   ...      0.00126709 Eh       0.80 kcal/mol
Thermal rotational correction    ...      0.00141627 Eh       0.89 kcal/mol
Thermal translational correction ...      0.00141627 Eh       0.89 kcal/mol
-----------------------------------------------------------------------
Total thermal energy                   -337.59395674 Eh


Summary of corrections to the electronic energy:
(perhaps to be used in another calculation)
Total thermal correction                  0.00409964 Eh       2.57 kcal/mol
Non-thermal (ZPE) correction              0.01085173 Eh       6.81 kcal/mol
-----------------------------------------------------------------------
Total correction                          0.01495136 Eh       9.38 kcal/mol


--------
ENTHALPY
--------

The enthalpy is H = U + kB*T
                kB is Boltzmann's constant
Total free energy                 ...   -337.59395674 Eh 
Thermal Enthalpy correction       ...      0.00094421 Eh       0.59 kcal/mol
-----------------------------------------------------------------------
Total Enthalpy                    ...   -337.59301253 Eh


Note: Rotational entropy computed according to Herzberg 
Infrared and Raman Spectra, Chapter V,1, Van Nostrand Reinhold, 1945 
Point Group:  Cs, Symmetry Number:   1  
Rotational constants in cm-1:     0.349196     0.348859     0.175453 

Vibrational entropy computed according to the QRRHO of S. Grimme
Chem.Eur.J. 2012 18 9955


-------
ENTROPY
-------

The entropy contributions are T*S = T*(S(el)+S(vib)+S(rot)+S(trans))
     S(el)   - electronic entropy
     S(vib)  - vibrational entropy
     S(rot)  - rotational entropy
     S(trans)- translational entropy
The entropies will be listed as multiplied by the temperature to get
units of energy

Electronic entropy                ...      0.00065446 Eh      0.41 kcal/mol
Vibrational entropy               ...      0.00221743 Eh      1.39 kcal/mol
Rotational entropy                ...      0.01132628 Eh      7.11 kcal/mol
Translational entropy             ...      0.01834582 Eh     11.51 kcal/mol
-----------------------------------------------------------------------
Final entropy term                ...      0.03254398 Eh     20.42 kcal/mol

In case the symmetry of your molecule has not been determined correctly
or in case you have a reason to use a different symmetry number we print 
out the resulting rotational entropy values for sn=1,12 :
 --------------------------------------------------------
|  sn= 1 | S(rot)=       0.01132628 Eh      7.11 kcal/mol|
|  sn= 2 | S(rot)=       0.01067182 Eh      6.70 kcal/mol|
|  sn= 3 | S(rot)=       0.01028899 Eh      6.46 kcal/mol|
|  sn= 4 | S(rot)=       0.01001736 Eh      6.29 kcal/mol|
|  sn= 5 | S(rot)=       0.00980668 Eh      6.15 kcal/mol|
|  sn= 6 | S(rot)=       0.00963453 Eh      6.05 kcal/mol|
|  sn= 7 | S(rot)=       0.00948899 Eh      5.95 kcal/mol|
|  sn= 8 | S(rot)=       0.00936291 Eh      5.88 kcal/mol|
|  sn= 9 | S(rot)=       0.00925170 Eh      5.81 kcal/mol|
|  sn=10 | S(rot)=       0.00915222 Eh      5.74 kcal/mol|
|  sn=11 | S(rot)=       0.00906223 Eh      5.69 kcal/mol|
|  sn=12 | S(rot)=       0.00898008 Eh      5.64 kcal/mol|
 --------------------------------------------------------


-------------------
GIBBS FREE ENERGY
-------------------

The Gibbs free energy is G = H - T*S

Total enthalpy                    ...   -337.59301253 Eh 
Total entropy correction          ...     -0.03254398 Eh    -20.42 kcal/mol
-----------------------------------------------------------------------
Final Gibbs free energy         ...   -337.62555651 Eh

For completeness - the Gibbs free energy minus the electronic energy
G-E(el)                           ...     -0.01664841 Eh    -10.45 kcal/mol


Timings for individual modules:

Sum of individual times         ...       88.658 sec (=   1.478 min)
GTO integral calculation        ...       11.098 sec (=   0.185 min)  12.5 %
SCF iterations                  ...       45.220 sec (=   0.754 min)  51.0 %
SCF Gradient evaluation         ...       11.110 sec (=   0.185 min)  12.5 %
Geometry relaxation             ...        0.170 sec (=   0.003 min)   0.2 %
Analytical frequency calculation...       21.059 sec (=   0.351 min)  23.8 %
                             ****ORCA TERMINATED NORMALLY****
TOTAL RUN TIME: 0 days 0 hours 1 minutes 39 seconds 273 msec

slurmID:    32260077
totalRuntime[s]:    99.322741214
