
                                 *****************
                                 * O   R   C   A *
                                 *****************

                                            #,                                       
                                            ###                                      
                                            ####                                     
                                            #####                                    
                                            ######                                   
                                           ########,                                 
                                     ,,################,,,,,                         
                               ,,#################################,,                 
                          ,,##########################################,,             
                       ,#########################################, ''#####,          
                    ,#############################################,,   '####,        
                  ,##################################################,,,,####,       
                ,###########''''           ''''###############################       
              ,#####''   ,,,,##########,,,,          '''####'''          '####       
            ,##' ,,,,###########################,,,                        '##       
           ' ,,###''''                  '''############,,,                           
         ,,##''                                '''############,,,,        ,,,,,,###''
      ,#''                                            '''#######################'''  
     '                                                          ''''####''''         
             ,#######,   #######,   ,#######,      ##                                
            ,#'     '#,  ##    ##  ,#'     '#,    #''#        ######   ,####,        
            ##       ##  ##   ,#'  ##            #'  '#       #        #'  '#        
            ##       ##  #######   ##           ,######,      #####,   #    #        
            '#,     ,#'  ##    ##  '#,     ,#' ,#      #,         ##   #,  ,#        
             '#######'   ##     ##  '#######'  #'      '#     #####' # '####'        



                  #######################################################
                  #                        -***-                        #
                  #          Department of theory and spectroscopy      #
                  #    Directorship and core code : Frank Neese         #
                  #        Max Planck Institute fuer Kohlenforschung    #
                  #                Kaiser Wilhelm Platz 1               #
                  #                 D-45470 Muelheim/Ruhr               #
                  #                      Germany                        #
                  #                                                     #
                  #                  All rights reserved                #
                  #                        -***-                        #
                  #######################################################


                         Program Version 5.0.4 -  RELEASE  -


 With contributions from (in alphabetic order):
   Daniel Aravena         : Magnetic Suceptibility
   Michael Atanasov       : Ab Initio Ligand Field Theory (pilot matlab implementation)
   Alexander A. Auer      : GIAO ZORA, VPT2 properties, NMR spectrum
   Ute Becker             : Parallelization
   Giovanni Bistoni       : ED, misc. LED, open-shell LED, HFLD
   Martin Brehm           : Molecular dynamics
   Dmytro Bykov           : SCF Hessian
   Vijay G. Chilkuri      : MRCI spin determinant printing, contributions to CSF-ICE
   Dipayan Datta          : RHF DLPNO-CCSD density
   Achintya Kumar Dutta   : EOM-CC, STEOM-CC
   Dmitry Ganyushin       : Spin-Orbit,Spin-Spin,Magnetic field MRCI
   Miquel Garcia          : C-PCM and meta-GGA Hessian, CC/C-PCM, Gaussian charge scheme
   Yang Guo               : DLPNO-NEVPT2, F12-NEVPT2, CIM, IAO-localization
   Andreas Hansen         : Spin unrestricted coupled pair/coupled cluster methods
   Benjamin Helmich-Paris : MC-RPA, TRAH-SCF, COSX integrals
   Lee Huntington         : MR-EOM, pCC
   Robert Izsak           : Overlap fitted RIJCOSX, COSX-SCS-MP3, EOM
   Marcus Kettner         : VPT2
   Christian Kollmar      : KDIIS, OOCD, Brueckner-CCSD(T), CCSD density, CASPT2, CASPT2-K
   Simone Kossmann        : Meta GGA functionals, TD-DFT gradient, OOMP2, MP2 Hessian
   Martin Krupicka        : Initial AUTO-CI
   Lucas Lang             : DCDCAS
   Marvin Lechner         : AUTO-CI (C++ implementation), FIC-MRCC
   Dagmar Lenk            : GEPOL surface, SMD
   Dimitrios Liakos       : Extrapolation schemes; Compound Job, initial MDCI parallelization
   Dimitrios Manganas     : Further ROCIS development; embedding schemes
   Dimitrios Pantazis     : SARC Basis sets
   Anastasios Papadopoulos: AUTO-CI, single reference methods and gradients
   Taras Petrenko         : DFT Hessian,TD-DFT gradient, ASA, ECA, R-Raman, ABS, FL, XAS/XES, NRVS
   Peter Pinski           : DLPNO-MP2, DLPNO-MP2 Gradient
   Christoph Reimann      : Effective Core Potentials
   Marius Retegan         : Local ZFS, SOC
   Christoph Riplinger    : Optimizer, TS searches, QM/MM, DLPNO-CCSD(T), (RO)-DLPNO pert. Triples
   Tobias Risthaus        : Range-separated hybrids, TD-DFT gradient, RPA, STAB
   Michael Roemelt        : Original ROCIS implementation
   Masaaki Saitow         : Open-shell DLPNO-CCSD energy and density
   Barbara Sandhoefer     : DKH picture change effects
   Avijit Sen             : IP-ROCIS
   Kantharuban Sivalingam : CASSCF convergence, NEVPT2, FIC-MRCI
   Bernardo de Souza      : ESD, SOC TD-DFT
   Georgi Stoychev        : AutoAux, RI-MP2 NMR, DLPNO-MP2 response
   Willem Van den Heuvel  : Paramagnetic NMR
   Boris Wezisla          : Elementary symmetry handling
   Frank Wennmohs         : Technical directorship


 We gratefully acknowledge several colleagues who have allowed us to
 interface, adapt or use parts of their codes:
   Stefan Grimme, W. Hujo, H. Kruse, P. Pracht,  : VdW corrections, initial TS optimization,
                  C. Bannwarth, S. Ehlert          DFT functionals, gCP, sTDA/sTD-DF
   Ed Valeev, F. Pavosevic, A. Kumar             : LibInt (2-el integral package), F12 methods
   Garnet Chan, S. Sharma, J. Yang, R. Olivares  : DMRG
   Ulf Ekstrom                                   : XCFun DFT Library
   Mihaly Kallay                                 : mrcc  (arbitrary order and MRCC methods)
   Jiri Pittner, Ondrej Demel                    : Mk-CCSD
   Frank Weinhold                                : gennbo (NPA and NBO analysis)
   Christopher J. Cramer and Donald G. Truhlar   : smd solvation model
   Lars Goerigk                                  : TD-DFT with DH, B97 family of functionals
   V. Asgeirsson, H. Jonsson                     : NEB implementation
   FAccTs GmbH                                   : IRC, NEB, NEB-TS, DLPNO-Multilevel, CI-OPT
                                                   MM, QMMM, 2- and 3-layer-ONIOM, Crystal-QMMM,
                                                   LR-CPCM, SF, NACMEs, symmetry and pop. for TD-DFT,
                                                   nearIR, NL-DFT gradient (VV10), updates on ESD,
                                                   ML-optimized integration grids
   S Lehtola, MJT Oliveira, MAL Marques          : LibXC Library
   Liviu Ungur et al                             : ANISO software


 Your calculation uses the libint2 library for the computation of 2-el integrals
 For citations please refer to: http://libint.valeyev.net

 Your ORCA version has been built with support for libXC version: 5.1.0
 For citations please refer to: https://tddft.org/programs/libxc/

 This ORCA versions uses:
   CBLAS   interface :  Fast vector & matrix operations
   LAPACKE interface :  Fast linear algebra routines
   SCALAPACK package :  Parallel linear algebra routines
   Shared memory     :  Shared parallel matrices
   BLAS/LAPACK       :  OpenBLAS 0.3.15  USE64BITINT DYNAMIC_ARCH NO_AFFINITY SkylakeX SINGLE_THREADED
        Core in use  :  SkylakeX
   Copyright (c) 2011-2014, The OpenBLAS Project


Your calculation utilizes the atom-pairwise dispersion correction
with the zero-damping scheme (D30)
Cite in your paper:
S.Grimme, J.Antony, S.Ehrlich and H.Krieg, J.Chem.Phys., 132, (2010), 154104 
   

XCFun DFT library Copyright 2009-2010 Ulf Ekstrom and contributors.
See http://admol.org/xcfun for more information.
This is free software; see the source code for copying conditions.
There is ABSOLUTELY NO WARRANTY; not even for MERCHANTABILITY or FITNESS FOR A PARTICULAR PURPOSE.
For details see the documentation.
Scientific users of this library should cite U. Ekstrom, L. Visscher, R. Bast, A. J. Thorvaldsen and K. Ruud;
J.Chem.Theor.Comp. 2010, DOI: 10.1021/ct100117s
XCFun Version 0.99 

================================================================================

----- Orbital basis set information -----
Your calculation utilizes the basis: def2-TZVPD
   F. Weigend and R. Ahlrichs, Phys. Chem. Chem. Phys. 7, 3297 (2005).
   D. Rappoport and F. Furche, J. Chem. Phys. 133 134105 (2010).

----- AuxJ basis set information -----
Your calculation utilizes the auxiliary basis: def2/J
   F. Weigend, Phys. Chem. Chem. Phys. 8, 1057 (2006).

================================================================================
                                        WARNINGS
                       Please study these warnings very carefully!
================================================================================


WARNING: Geometry Optimization
  ===> : Switching off AutoStart
         For restart on a previous wavefunction, please use MOREAD

INFO   : the flag for use of the SHARK integral package has been found!

================================================================================
                                       INPUT FILE
================================================================================
NAME = /beegfs/scratch/ispackman/PFAS_EPR_calcs/benchmark/JChemEd_CF3_radical/CF3_radical_119.0_degrees_IN-PROGRESS/CF3_radical_119.0_degrees.inp
|  1> ! UKS TightSCF wB97x-D3 def2-TZVPD xyzfile opt freq
|  2> 
|  3> # CF3 radical 119.0 degrees fixed
|  4> 
|  5> %maxcore 1000
|  6> %pal
|  7> nprocs 18
|  8> end
|  9> 
| 10> %geom Constraints
| 11>         { A * 0 * C }
| 12>     end
| 13> end
| 14> * xyz 0 2
| 15> C 0.00 0.00 0.00
| 16> F 1.3083246069 0.0000000000 -0.1323318667
| 17> F -0.6541623035 1.1330423460 -0.1323318667
| 18> F -0.6541623035 -1.1330423460 -0.1323318667
| 19> **                         ****END OF INPUT****
================================================================================

                       *****************************
                       * Geometry Optimization Run *
                       *****************************

Geometry optimization settings:
Update method            Update   .... BFGS
Choice of coordinates    CoordSys .... Z-matrix Internals
Initial Hessian          InHess   .... Almoef's Model

Convergence Tolerances:
Energy Change            TolE     ....  5.0000e-06 Eh
Max. Gradient            TolMAXG  ....  3.0000e-04 Eh/bohr
RMS Gradient             TolRMSG  ....  1.0000e-04 Eh/bohr
Max. Displacement        TolMAXD  ....  4.0000e-03 bohr
RMS Displacement         TolRMSD  ....  2.0000e-03 bohr
Strict Convergence                ....  False
------------------------------------------------------------------------------
                        ORCA OPTIMIZATION COORDINATE SETUP
------------------------------------------------------------------------------

The optimization will be done in new redundant internal coordinates
Making redundant internal coordinates   ...  (new redundants) done
Evaluating the initial hessian          ...  (Almloef) done
Evaluating the coordinates              ...  done
Calculating the B-matrix                .... done
Calculating the G-matrix                .... done
Diagonalizing the G-matrix              .... done
Imposing constraints:
 Iter   0:  RMS(Cart)=    0.0000000000 RMS(Int)=    0.0000000000
CONVERGED
Will constrain atom 0 coordinate 1 
Will constrain atom 0 coordinate 2 
Will constrain atom 1 coordinate 2 
The first mode is                       ....    1
The number of degrees of freedom        ....    6
Storing new coordinates                 .... done

    -----------------------------------------------------------------
                    Redundant Internal Coordinates


    -----------------------------------------------------------------
         Definition                    Initial Value    Approx d2E/dq
    -----------------------------------------------------------------
      1. B(F   1,C   0)                  1.3150         0.684896   
      2. B(F   2,C   0)                  1.3150         0.684896   
      3. B(F   3,C   0)                  1.3150         0.684896   
      4. A(F   2,C   0,F   3)          119.0000         0.440101 C 
      5. A(F   1,C   0,F   2)          119.0000         0.440101 C 
      6. A(F   1,C   0,F   3)          119.0000         0.440101 C 
      7. I(F   1,F   3,F   2,C   0)     17.2118         0.074270   
    -----------------------------------------------------------------

Number of atoms                         .... 4
Number of degrees of freedom            .... 7

         *************************************************************
         *                GEOMETRY OPTIMIZATION CYCLE   1            *
         *************************************************************
---------------------------------
CARTESIAN COORDINATES (ANGSTROEM)
---------------------------------
  C      0.000000    0.000000    0.000000
  F      1.308325    0.000000   -0.132332
  F     -0.654162    1.133042   -0.132332
  F     -0.654162   -1.133042   -0.132332

----------------------------
CARTESIAN COORDINATES (A.U.)
----------------------------
  NO LB      ZA    FRAG     MASS         X           Y           Z
   0 C     6.0000    0    12.011    0.000000    0.000000    0.000000
   1 F     9.0000    0    18.998    2.472375    0.000000   -0.250071
   2 F     9.0000    0    18.998   -1.236188    2.141140   -0.250071
   3 F     9.0000    0    18.998   -1.236188   -2.141140   -0.250071

--------------------------------
INTERNAL COORDINATES (ANGSTROEM)
--------------------------------
 C      0   0   0     0.000000000000     0.00000000     0.00000000
 F      1   0   0     1.314999999986     0.00000000     0.00000000
 F      1   2   0     1.315000000036   119.00000000     0.00000000
 F      1   2   3     1.315000000036   119.00000000   160.22526278

---------------------------
INTERNAL COORDINATES (A.U.)
---------------------------
 C      0   0   0     0.000000000000     0.00000000     0.00000000
 F      1   0   0     2.484989866081     0.00000000     0.00000000
 F      1   2   0     2.484989866174   119.00000000     0.00000000
 F      1   2   3     2.484989866174   119.00000000   160.22526278

---------------------
BASIS SET INFORMATION
---------------------
There are 2 groups of distinct atoms

 Group   1 Type C   : 12s6p3d1f contracted to 6s3p3d1f pattern {621111/411/111/1}
 Group   2 Type F   : 12s7p3d1f contracted to 6s4p3d1f pattern {621111/4111/111/1}

Atom   0C    basis set group =>   1
Atom   1F    basis set group =>   2
Atom   2F    basis set group =>   2
Atom   3F    basis set group =>   2
---------------------------------
AUXILIARY/J BASIS SET INFORMATION
---------------------------------
There are 2 groups of distinct atoms

 Group   1 Type C   : 12s5p4d2f1g contracted to 6s4p3d1f1g pattern {711111/2111/211/2/1}
 Group   2 Type F   : 12s5p4d2f1g contracted to 6s4p3d1f1g pattern {711111/2111/211/2/1}

Atom   0C    basis set group =>   1
Atom   1F    basis set group =>   2
Atom   2F    basis set group =>   2
Atom   3F    basis set group =>   2


           ************************************************************
           *        Program running with 18 parallel MPI-processes    *
           *              working on a common directory               *
           ************************************************************
------------------------------------------------------------------------------
                           ORCA GTO INTEGRAL CALCULATION
                           -- RI-GTO INTEGRALS CHOSEN --
------------------------------------------------------------------------------
------------------------------------------------------------------------------
                   ___                                                        
                  /   \      - P O W E R E D   B Y -                         
                 /     \                                                     
                 |  |  |   _    _      __       _____    __    __             
                 |  |  |  | |  | |    /  \     |  _  \  |  |  /  |          
                  \  \/   | |  | |   /    \    | | | |  |  | /  /          
                 / \  \   | |__| |  /  /\  \   | |_| |  |  |/  /          
                |  |  |   |  __  | /  /__\  \  |    /   |      \           
                |  |  |   | |  | | |   __   |  |    \   |  |\   \          
                \     /   | |  | | |  |  |  |  | |\  \  |  | \   \       
                 \___/    |_|  |_| |__|  |__|  |_| \__\ |__|  \__/        
                                                                              
                      - O R C A' S   B I G   F R I E N D -                    
                                      &                                       
                       - I N T E G R A L  F E E D E R -                       
                                                                              
 v1 FN, 2020, v2 2021                                                         
------------------------------------------------------------------------------


Reading SHARK input file /beegfs/scratch/ispackman/PFAS_EPR_calcs/benchmark/JChemEd_CF3_radical/CF3_radical_119.0_degrees_IN-PROGRESS/CF3_radical_119.0_degrees.SHARKINP.tmp ... ok
----------------------
SHARK INTEGRAL PACKAGE
----------------------

Number of atoms                             ...      4
Number of basis functions                   ...    157
Number of shells                            ...     55
Maximum angular momentum                    ...      3
Integral batch strategy                     ... SHARK/LIBINT Hybrid
RI-J (if used) integral strategy            ... SPLIT-RIJ (Revised 2003 algorithm where possible)
Printlevel                                  ...      1
Contraction scheme used                     ... SEGMENTED contraction
Coulomb Range Separation                    ... NOT USED
Exchange Range Separation                   ... Long Range
   Mu parameter                             ...  0.250000
   Scaling (regular/separated)              ...  0.195728  0.804272
Finite Nucleus Model                        ... NOT USED
Auxiliary Coulomb fitting basis             ... AVAILABLE
   # of basis functions in Aux-J            ...    196
   # of shells in Aux-J                     ...     60
   Maximum angular momentum in Aux-J        ...      4
Auxiliary J/K fitting basis                 ... NOT available
Auxiliary Correlation fitting basis         ... NOT available
Auxiliary 'external' fitting basis          ... NOT available
Integral threshold                          ...     2.500000e-11
Primitive cut-off                           ...     2.500000e-12
Primitive pair pre-selection threshold      ...     2.500000e-12

Calculating pre-screening integrals         ... done (  0.0 sec) Dimension = 55
Organizing shell pair data                  ... done (  0.0 sec)
Shell pair information
Total number of shell pairs                 ...      1540
Shell pairs after pre-screening             ...      1492
Total number of primitive shell pairs       ...      4274
Primitive shell pairs kept                  ...      3443
          la=0 lb=0:    276 shell pairs
          la=1 lb=0:    354 shell pairs
          la=1 lb=1:    120 shell pairs
          la=2 lb=0:    276 shell pairs
          la=2 lb=1:    180 shell pairs
          la=2 lb=2:     78 shell pairs
          la=3 lb=0:     90 shell pairs
          la=3 lb=1:     60 shell pairs
          la=3 lb=2:     48 shell pairs
          la=3 lb=3:     10 shell pairs

Calculating one electron integrals          ... done (  0.0 sec)
Calculating RI/J V-Matrix + Cholesky decomp.... done (  0.0 sec)
Calculating Nuclear repulsion               ... done (  0.0 sec) ENN=    121.936891871481 Eh

SHARK setup successfully completed in   0.3 seconds

Maximum memory used throughout the entire GTOINT-calculation: 15.2 MB


           ************************************************************
           *        Program running with 18 parallel MPI-processes    *
           *              working on a common directory               *
           ************************************************************
-------------------------------------------------------------------------------
                                 ORCA SCF
-------------------------------------------------------------------------------

------------
SCF SETTINGS
------------
Hamiltonian:
 Density Functional     Method          .... DFT(GTOs)
 Exchange Functional    Exchange        .... WB97X-D3
 Correlation Functional Correlation     .... WB97X-D3
 Gradients option       PostSCFGGA      .... off
 Hybrid DFT is turned on
   Fraction HF Exchange ScalHFX         ....  0.195728
   Scaling of DF-GGA-X  ScalDFX         ....  0.000000
   Scaling of DF-GGA-C  ScalDFC         ....  1.000000
   Scaling of DF-LDA-C  ScalLDAC        ....  1.000000
   Perturbative correction              ....  0.000000
   Density functional embedding theory  .... OFF
 Long-range corrected/Screened/Range-Separated Hybrid DFT is turned on
   Amount of maximum screened exact exchange              ....  0.804272
   Range separation parameter mu (erf(mu*r12)/r12)        ....  0.250000
 RI-approximation to the Coulomb term is turned on
   Number of AuxJ basis functions       .... 196
   RIJ-COSX (HFX calculated with COS-X)).... on


General Settings:
 Integral files         IntName         .... /beegfs/scratch/ispackman/PFAS_EPR_calcs/benchmark/JChemEd_CF3_radical/CF3_radical_119.0_degrees_IN-PROGRESS/CF3_radical_119.0_degrees
 Hartree-Fock type      HFTyp           .... UHF
 Total Charge           Charge          ....    0
 Multiplicity           Mult            ....    2
 Number of Electrons    NEL             ....   33
 Basis Dimension        Dim             ....  157
 Nuclear Repulsion      ENuc            ....    121.9368918715 Eh

Convergence Acceleration:
 DIIS                   CNVDIIS         .... on
   Start iteration      DIISMaxIt       ....    12
   Startup error        DIISStart       ....  0.200000
   # of expansion vecs  DIISMaxEq       ....     5
   Bias factor          DIISBfac        ....   1.050
   Max. coefficient     DIISMaxC        ....  10.000
 Trust-Rad. Augm. Hess. CNVTRAH         .... auto
   Auto Start mean grad. ratio tolernc. ....  1.125000
   Auto Start start iteration           ....    20
   Auto Start num. interpolation iter.  ....    10
   Max. Number of Micro iterations      ....    16
   Max. Number of Macro iterations      .... Maxiter - #DIIS iter
   Number of Davidson start vectors     ....     2
   Converg. threshold I  (grad. norm)   ....   1.000e-05
   Converg. threshold II (energy diff.) ....   1.000e-08
   Grad. Scal. Fac. for Micro threshold ....   0.100
   Minimum threshold for Micro iter.    ....   0.010
   NR start threshold (gradient norm)   ....   0.001
   Initial trust radius                 ....   0.400
   Minimum AH scaling param. (alpha)    ....   1.000
   Maximum AH scaling param. (alpha)    .... 1000.000
   Orbital update algorithm             .... Taylor
   White noise on init. David. guess    .... on
   Maximum white noise                  ....   0.010
   Quad. conv. algorithm                .... NR
 SOSCF                  CNVSOSCF        .... off
 Level Shifting         CNVShift        .... on
   Level shift para.    LevelShift      ....    0.2500
   Turn off err/grad.   ShiftErr        ....    0.0010
 Zerner damping         CNVZerner       .... off
 Static damping         CNVDamp         .... on
   Fraction old density DampFac         ....    0.7000
   Max. Damping (<1)    DampMax         ....    0.9800
   Min. Damping (>=0)   DampMin         ....    0.0000
   Turn off err/grad.   DampErr         ....    0.1000
 Fernandez-Rico         CNVRico         .... off

SCF Procedure:
 Maximum # iterations   MaxIter         ....   125
 SCF integral mode      SCFMode         .... Direct
   Integral package                     .... SHARK and LIBINT hybrid scheme
 Reset frequency        DirectResetFreq ....    20
 Integral Threshold     Thresh          ....  2.500e-11 Eh
 Primitive CutOff       TCut            ....  2.500e-12 Eh

Convergence Tolerance:
 Convergence Check Mode ConvCheckMode   .... Total+1el-Energy
 Convergence forced     ConvForced      .... 0
 Energy Change          TolE            ....  1.000e-08 Eh
 1-El. energy change                    ....  1.000e-05 Eh
 DIIS Error             TolErr          ....  5.000e-07


Diagonalization of the overlap matrix:
Smallest eigenvalue                        ... 2.718e-04
Time for diagonalization                   ...    0.008 sec
Threshold for overlap eigenvalues          ... 1.000e-08
Number of eigenvalues below threshold      ... 0
Time for construction of square roots      ...    0.032 sec
Total time needed                          ...    0.041 sec

Time for model grid setup =    0.054 sec

------------------------------
INITIAL GUESS: MODEL POTENTIAL
------------------------------
Loading Hartree-Fock densities                     ... done
Calculating cut-offs                               ... done
Initializing the effective Hamiltonian             ... done
Setting up the integral package (SHARK)            ... done
Starting the Coulomb interaction                   ... done (   0.1 sec)
Reading the grid                                   ... done
Mapping shells                                     ... done
Starting the XC term evaluation                    ... done (   0.0 sec)
  promolecular density results
     # of electrons  =     32.999978823
     EX              =    -35.093776790
     EC              =     -1.143358382
     EX+EC           =    -36.237135172
Transforming the Hamiltonian                       ... done (   0.0 sec)
Diagonalizing the Hamiltonian                      ... done (   0.0 sec)
Back transforming the eigenvectors                 ... done (   0.0 sec)
Now organizing SCF variables                       ... done
                      ------------------
                      INITIAL GUESS DONE (   0.2 sec)
                      ------------------
-------------------
DFT GRID GENERATION
-------------------

General Integration Accuracy     IntAcc      ... 4.388
Radial Grid Type                 RadialGrid  ... OptM3 with GC (2021)
Angular Grid (max. ang.)         AngularGrid ... 4 (Lebedev-302)
Angular grid pruning method      GridPruning ... 4 (adaptive)
Weight generation scheme         WeightScheme... Becke
Basis function cutoff            BFCut       ... 1.0000e-11
Integration weight cutoff        WCut        ... 1.0000e-14
Angular grids for H and He will be reduced by one unit
Partially contracted basis set               ... off
Rotationally invariant grid construction     ... off

Total number of grid points                  ...    25763
Total number of batches                      ...      405
Average number of points per batch           ...       63
Average number of grid points per atom       ...     6441
Time for grid setup =    0.152 sec

--------------------
COSX GRID GENERATION
--------------------

GRIDX 1
-------
General Integration Accuracy     IntAcc      ... 3.816
Radial Grid Type                 RadialGrid  ... OptM3 with GC (2021)
Angular Grid (max. ang.)         AngularGrid ... 1 (Lebedev-50)
Angular grid pruning method      GridPruning ... 4 (adaptive)
Weight generation scheme         WeightScheme... Becke
Basis function cutoff            BFCut       ... 1.0000e-11
Integration weight cutoff        WCut        ... 1.0000e-14
Angular grids for H and He will be reduced by one unit
Partially contracted basis set               ... on
Rotationally invariant grid construction     ... off

Total number of grid points                  ...     3268
Total number of batches                      ...       52
Average number of points per batch           ...       62
Average number of grid points per atom       ...      817
UseSFitting                                  ... on

GRIDX 2
-------
General Integration Accuracy     IntAcc      ... 4.020
Radial Grid Type                 RadialGrid  ... OptM3 with GC (2021)
Angular Grid (max. ang.)         AngularGrid ... 2 (Lebedev-110)
Angular grid pruning method      GridPruning ... 4 (adaptive)
Weight generation scheme         WeightScheme... Becke
Basis function cutoff            BFCut       ... 1.0000e-11
Integration weight cutoff        WCut        ... 1.0000e-14
Angular grids for H and He will be reduced by one unit
Partially contracted basis set               ... on
Rotationally invariant grid construction     ... off

Total number of grid points                  ...     9125
Total number of batches                      ...      144
Average number of points per batch           ...       63
Average number of grid points per atom       ...     2281
UseSFitting                                  ... on

GRIDX 3
-------
General Integration Accuracy     IntAcc      ... 4.338
Radial Grid Type                 RadialGrid  ... OptM3 with GC (2021)
Angular Grid (max. ang.)         AngularGrid ... 3 (Lebedev-194)
Angular grid pruning method      GridPruning ... 4 (adaptive)
Weight generation scheme         WeightScheme... Becke
Basis function cutoff            BFCut       ... 1.0000e-11
Integration weight cutoff        WCut        ... 1.0000e-14
Angular grids for H and He will be reduced by one unit
Partially contracted basis set               ... on
Rotationally invariant grid construction     ... off

Total number of grid points                  ...    19658
Total number of batches                      ...      309
Average number of points per batch           ...       63
Average number of grid points per atom       ...     4914
UseSFitting                                  ... on

Time for X-Grid setup             =    0.374 sec

--------------
SCF ITERATIONS
--------------
ITER       Energy         Delta-E        Max-DP      RMS-DP      [F,P]     Damp
               ***  Starting incremental Fock matrix formation  ***
  0   -337.5550224026   0.000000000000 0.01583006  0.00034079  0.0620052 0.7000
  1   -337.5749079077  -0.019885505025 0.01165252  0.00023912  0.0314581 0.7000
                               ***Turning on DIIS***
  2   -337.5837476705  -0.008839762862 0.02426885  0.00050247  0.0187803 0.0000
  3   -337.6005472958  -0.016799625269 0.00653569  0.00015314  0.0155776 0.0000
  4   -337.6030227351  -0.002475439273 0.00924536  0.00013426  0.0054358 0.0000
  5   -337.6034495065  -0.000426771473 0.00853842  0.00011483  0.0039744 0.0000
  6   -337.6036561261  -0.000206619558 0.00733607  0.00009777  0.0025034 0.0000
  7   -337.6037574849  -0.000101358821 0.00543577  0.00007081  0.0015788 0.0000
  8   -337.6037995218  -0.000042036917 0.00659103  0.00008502  0.0009189 0.0000
               *** Restarting incremental Fock matrix formation ***
                                   *** Resetting DIIS ***
  9   -337.6038177106  -0.000018188732 0.00064237  0.00001092  0.0002382 0.0000
 10   -337.6038194175  -0.000001706979 0.00033919  0.00000473  0.0001711 0.0000
 11   -337.6038200080  -0.000000590444 0.00049233  0.00000703  0.0000971 0.0000
 12   -337.6038205039  -0.000000495927 0.00019465  0.00000331  0.0000325 0.0000
 13   -337.6038205627  -0.000000058769 0.00006836  0.00000077  0.0000103 0.0000
 14   -337.6038205662  -0.000000003509 0.00001338  0.00000024  0.0000036 0.0000
                            ***DIIS convergence achieved***

               *****************************************************
               *                     SUCCESS                       *
               *           SCF CONVERGED AFTER  15 CYCLES          *
               *****************************************************

Old exchange energy                            =    -10.533833132 Eh
New exchange energy                            =    -10.533826437 Eh
Exchange energy change after final integration =      0.000006696 Eh
Total energy after final integration           =   -337.603813871 Eh
Final COS-X integration done in                =     0.405 sec

----------------
TOTAL SCF ENERGY
----------------

Total Energy       :         -337.60381387 Eh           -9186.66682 eV

Components:
Nuclear Repulsion  :          121.93689187 Eh            3318.07152 eV
Electronic Energy  :         -459.54070574 Eh          -12504.73833 eV
One Electron Energy:         -710.70992203 Eh          -19339.40017 eV
Two Electron Energy:          251.16921629 Eh            6834.66184 eV
Max COSX asymmetry :            0.00000033 Eh               0.00001 eV

Virial components:
Potential Energy   :         -674.12045657 Eh          -18343.75020 eV
Kinetic Energy     :          336.51664270 Eh            9157.08339 eV
Virial Ratio       :            2.00323066


DFT components:
N(Alpha)           :       16.999814500189 electrons
N(Beta)            :       15.999914428989 electrons
N(Total)           :       32.999728929178 electrons
E(XC)              :      -26.184744075801 Eh       
DFET-embed. en.    :        0.000000000000 Eh       

---------------
SCF CONVERGENCE
---------------

  Last Energy change         ...   -1.5962e-10  Tolerance :   1.0000e-08
  Last MAX-Density change    ...    0.0000e+00  Tolerance :   1.0000e-07
  Last RMS-Density change    ...    0.0000e+00  Tolerance :   5.0000e-09
  Last DIIS Error            ...    8.4271e-07  Tolerance :   5.0000e-07

             **** THE GBW FILE WAS UPDATED (/beegfs/scratch/ispackman/PFAS_EPR_calcs/benchmark/JChemEd_CF3_radical/CF3_radical_119.0_degrees_IN-PROGRESS/CF3_radical_119.0_degrees.gbw) ****
             **** DENSITY /beegfs/scratch/ispackman/PFAS_EPR_calcs/benchmark/JChemEd_CF3_radical/CF3_radical_119.0_degrees_IN-PROGRESS/CF3_radical_119.0_degrees.scfp WAS UPDATED ****
             **** ENERGY FILE WAS UPDATED (/beegfs/scratch/ispackman/PFAS_EPR_calcs/benchmark/JChemEd_CF3_radical/CF3_radical_119.0_degrees_IN-PROGRESS/CF3_radical_119.0_degrees.en.tmp) ****
----------------------
UHF SPIN CONTAMINATION
----------------------

Warning: in a DFT calculation there is little theoretical justification to 
         calculate <S**2> as in Hartree-Fock theory. We will do it anyways
         but you should keep in mind that the values have only limited relevance

Expectation value of <S**2>     :     0.753026
Ideal value S*(S+1) for S=0.5   :     0.750000
Deviation                       :     0.003026

             **** THE GBW FILE WAS UPDATED (/beegfs/scratch/ispackman/PFAS_EPR_calcs/benchmark/JChemEd_CF3_radical/CF3_radical_119.0_degrees_IN-PROGRESS/CF3_radical_119.0_degrees.gbw) ****
             **** DENSITY /beegfs/scratch/ispackman/PFAS_EPR_calcs/benchmark/JChemEd_CF3_radical/CF3_radical_119.0_degrees_IN-PROGRESS/CF3_radical_119.0_degrees.scfp WAS UPDATED ****
----------------
ORBITAL ENERGIES
----------------
                 SPIN UP ORBITALS
  NO   OCC          E(Eh)            E(eV) 
   0   1.0000     -24.857637      -676.4107 
   1   1.0000     -24.857630      -676.4105 
   2   1.0000     -24.857618      -676.4102 
   3   1.0000     -10.513706      -286.0925 
   4   1.0000      -1.456674       -39.6381 
   5   1.0000      -1.387025       -37.7429 
   6   1.0000      -1.387021       -37.7428 
   7   1.0000      -0.833098       -22.6698 
   8   1.0000      -0.731984       -19.9183 
   9   1.0000      -0.731976       -19.9181 
  10   1.0000      -0.695460       -18.9244 
  11   1.0000      -0.600400       -16.3377 
  12   1.0000      -0.600396       -16.3376 
  13   1.0000      -0.588777       -16.0214 
  14   1.0000      -0.588772       -16.0213 
  15   1.0000      -0.555083       -15.1046 
  16   1.0000      -0.296749        -8.0749 
  17   0.0000       0.053996         1.4693 
  18   0.0000       0.100105         2.7240 
  19   0.0000       0.100106         2.7240 
  20   0.0000       0.120419         3.2768 
  21   0.0000       0.145627         3.9627 
  22   0.0000       0.153990         4.1903 
  23   0.0000       0.153990         4.1903 
  24   0.0000       0.172633         4.6976 
  25   0.0000       0.172634         4.6976 
  26   0.0000       0.186965         5.0876 
  27   0.0000       0.237627         6.4661 
  28   0.0000       0.290858         7.9146 
  29   0.0000       0.290865         7.9148 
  30   0.0000       0.322842         8.7850 
  31   0.0000       0.351330         9.5602 
  32   0.0000       0.372957        10.1487 
  33   0.0000       0.372958        10.1487 
  34   0.0000       0.389543        10.6000 
  35   0.0000       0.389561        10.6005 
  36   0.0000       0.403867        10.9898 
  37   0.0000       0.441026        12.0009 
  38   0.0000       0.441027        12.0010 
  39   0.0000       0.478297        13.0151 
  40   0.0000       0.497538        13.5387 
  41   0.0000       0.497545        13.5389 
  42   0.0000       0.638344        17.3702 
  43   0.0000       0.638344        17.3702 
  44   0.0000       0.655336        17.8326 
  45   0.0000       0.667564        18.1653 
  46   0.0000       0.667565        18.1654 
  47   0.0000       0.719396        19.5758 
  48   0.0000       0.720260        19.5993 
  49   0.0000       0.739032        20.1101 
  50   0.0000       0.764234        20.7959 
  51   0.0000       0.764242        20.7961 
  52   0.0000       0.807149        21.9636 
  53   0.0000       0.807150        21.9637 
  54   0.0000       0.856761        23.3136 
  55   0.0000       0.856763        23.3137 
  56   0.0000       0.869662        23.6647 
  57   0.0000       0.951493        25.8914 
  58   0.0000       0.951497        25.8915 
  59   0.0000       0.982078        26.7237 
  60   0.0000       1.042790        28.3758 
  61   0.0000       1.042793        28.3758 
  62   0.0000       1.052636        28.6437 
  63   0.0000       1.141742        31.0684 
  64   0.0000       1.141745        31.0685 
  65   0.0000       1.190003        32.3816 
  66   0.0000       1.261234        34.3199 
  67   0.0000       1.274500        34.6809 
  68   0.0000       1.274501        34.6809 
  69   0.0000       1.293856        35.2076 
  70   0.0000       1.300314        35.3833 
  71   0.0000       1.300323        35.3836 
  72   0.0000       1.513814        41.1930 
  73   0.0000       1.513819        41.1931 
  74   0.0000       1.710127        46.5349 
  75   0.0000       2.083813        56.7034 
  76   0.0000       2.159522        58.7636 
  77   0.0000       2.159532        58.7639 
  78   0.0000       2.174037        59.1586 
  79   0.0000       2.194964        59.7280 
  80   0.0000       2.194970        59.7282 
  81   0.0000       2.297560        62.5198 
  82   0.0000       2.304040        62.6961 
  83   0.0000       2.432069        66.1800 
  84   0.0000       2.432088        66.1805 
  85   0.0000       2.498639        67.9914 
  86   0.0000       2.535013        68.9812 
  87   0.0000       2.535035        68.9818 
  88   0.0000       2.778327        75.6021 
  89   0.0000       2.778335        75.6023 
  90   0.0000       2.814465        76.5855 
  91   0.0000       2.936627        79.9097 
  92   0.0000       2.936632        79.9098 
  93   0.0000       3.114961        84.7624 
  94   0.0000       3.168276        86.2132 
  95   0.0000       3.168301        86.2138 
  96   0.0000       3.237788        88.1047 
  97   0.0000       3.358356        91.3855 
  98   0.0000       3.358395        91.3866 
  99   0.0000       3.366049        91.5949 
 100   0.0000       3.402606        92.5896 
 101   0.0000       3.402658        92.5910 
 102   0.0000       3.478362        94.6510 
 103   0.0000       3.478432        94.6530 
 104   0.0000       3.744383       101.8898 
 105   0.0000       3.760156       102.3190 
 106   0.0000       3.760198       102.3202 
 107   0.0000       3.891061       105.8812 
 108   0.0000       3.892380       105.9170 
 109   0.0000       3.892465       105.9194 
 110   0.0000       4.117220       112.0353 
 111   0.0000       4.117251       112.0361 
 112   0.0000       4.285134       116.6044 
 113   0.0000       4.425986       120.4372 
 114   0.0000       5.129861       139.5906 
 115   0.0000       5.529259       150.4588 
 116   0.0000       5.529283       150.4594 
 117   0.0000       6.873438       187.0358 
 118   0.0000       6.904785       187.8887 
 119   0.0000       6.904791       187.8889 
 120   0.0000       6.908037       187.9773 
 121   0.0000       6.913612       188.1289 
 122   0.0000       6.916004       188.1940 
 123   0.0000       6.916037       188.1949 
 124   0.0000       6.953962       189.2269 
 125   0.0000       6.954014       189.2283 
 126   0.0000       7.042837       191.6453 
 127   0.0000       7.058961       192.0841 
 128   0.0000       7.058968       192.0843 
 129   0.0000       7.178956       195.3493 
 130   0.0000       7.178968       195.3497 
 131   0.0000       7.308311       198.8693 
 132   0.0000       7.441210       202.4856 
 133   0.0000       7.441237       202.4863 
 134   0.0000       7.546241       205.3437 
 135   0.0000       7.546263       205.3443 
 136   0.0000       7.682867       209.0614 
 137   0.0000       8.024569       218.3596 
 138   0.0000       8.474351       230.5988 
 139   0.0000       8.522930       231.9207 
 140   0.0000       8.522943       231.9211 
 141   0.0000       8.574280       233.3180 
 142   0.0000       8.574290       233.3183 
 143   0.0000       8.583549       233.5702 
 144   0.0000       8.807677       239.6691 
 145   0.0000       8.854583       240.9454 
 146   0.0000       8.854585       240.9455 
 147   0.0000       9.023407       245.5394 
 148   0.0000       9.023434       245.5401 
 149   0.0000       9.137260       248.6375 
 150   0.0000       9.281149       252.5529 
 151   0.0000       9.343696       254.2549 
 152   0.0000       9.343703       254.2551 
 153   0.0000      23.033335       626.7689 
 154   0.0000      57.154766      1555.2602 
 155   0.0000      57.332724      1560.1027 
 156   0.0000      57.332732      1560.1029 

                 SPIN DOWN ORBITALS
  NO   OCC          E(Eh)            E(eV) 
   0   1.0000     -24.854877      -676.3356 
   1   1.0000     -24.854869      -676.3354 
   2   1.0000     -24.854850      -676.3349 
   3   1.0000     -10.500447      -285.7317 
   4   1.0000      -1.445691       -39.3392 
   5   1.0000      -1.379790       -37.5460 
   6   1.0000      -1.379781       -37.5458 
   7   1.0000      -0.811667       -22.0866 
   8   1.0000      -0.724196       -19.7064 
   9   1.0000      -0.724185       -19.7061 
  10   1.0000      -0.657717       -17.8974 
  11   1.0000      -0.593979       -16.1630 
  12   1.0000      -0.593976       -16.1629 
  13   1.0000      -0.571757       -15.5583 
  14   1.0000      -0.571749       -15.5581 
  15   1.0000      -0.552227       -15.0269 
  16   0.0000       0.047670         1.2972 
  17   0.0000       0.073087         1.9888 
  18   0.0000       0.103463         2.8154 
  19   0.0000       0.103463         2.8154 
  20   0.0000       0.132350         3.6014 
  21   0.0000       0.157014         4.2726 
  22   0.0000       0.157014         4.2726 
  23   0.0000       0.159459         4.3391 
  24   0.0000       0.178566         4.8590 
  25   0.0000       0.178566         4.8590 
  26   0.0000       0.209059         5.6888 
  27   0.0000       0.240136         6.5344 
  28   0.0000       0.299828         8.1587 
  29   0.0000       0.299831         8.1588 
  30   0.0000       0.328541         8.9400 
  31   0.0000       0.361963         9.8495 
  32   0.0000       0.375412        10.2155 
  33   0.0000       0.375413        10.2155 
  34   0.0000       0.406358        11.0576 
  35   0.0000       0.406374        11.0580 
  36   0.0000       0.419998        11.4287 
  37   0.0000       0.441791        12.0218 
  38   0.0000       0.441792        12.0218 
  39   0.0000       0.483272        13.1505 
  40   0.0000       0.497087        13.5264 
  41   0.0000       0.497089        13.5265 
  42   0.0000       0.640665        17.4334 
  43   0.0000       0.640666        17.4334 
  44   0.0000       0.664155        18.0726 
  45   0.0000       0.668715        18.1967 
  46   0.0000       0.668720        18.1968 
  47   0.0000       0.720044        19.5934 
  48   0.0000       0.728159        19.8142 
  49   0.0000       0.738553        20.0971 
  50   0.0000       0.767354        20.8808 
  51   0.0000       0.767357        20.8808 
  52   0.0000       0.811367        22.0784 
  53   0.0000       0.811369        22.0785 
  54   0.0000       0.859549        23.3895 
  55   0.0000       0.859552        23.3896 
  56   0.0000       0.872102        23.7311 
  57   0.0000       0.964390        26.2424 
  58   0.0000       0.964396        26.2426 
  59   0.0000       0.994778        27.0693 
  60   0.0000       1.044966        28.4350 
  61   0.0000       1.044969        28.4350 
  62   0.0000       1.056770        28.7562 
  63   0.0000       1.143781        31.1239 
  64   0.0000       1.143787        31.1240 
  65   0.0000       1.195621        32.5345 
  66   0.0000       1.261026        34.3142 
  67   0.0000       1.276522        34.7359 
  68   0.0000       1.276535        34.7363 
  69   0.0000       1.307634        35.5825 
  70   0.0000       1.315120        35.7862 
  71   0.0000       1.315123        35.7863 
  72   0.0000       1.522653        41.4335 
  73   0.0000       1.522664        41.4338 
  74   0.0000       1.765351        48.0376 
  75   0.0000       2.095907        57.0325 
  76   0.0000       2.168863        59.0178 
  77   0.0000       2.168896        59.0187 
  78   0.0000       2.175149        59.1888 
  79   0.0000       2.205528        60.0155 
  80   0.0000       2.205542        60.0158 
  81   0.0000       2.300671        62.6044 
  82   0.0000       2.324454        63.2516 
  83   0.0000       2.442696        66.4691 
  84   0.0000       2.442719        66.4698 
  85   0.0000       2.509048        68.2747 
  86   0.0000       2.545264        69.2602 
  87   0.0000       2.545284        69.2607 
  88   0.0000       2.788774        75.8864 
  89   0.0000       2.788826        75.8878 
  90   0.0000       2.835244        77.1509 
  91   0.0000       2.941142        80.0325 
  92   0.0000       2.941148        80.0327 
  93   0.0000       3.162263        86.0495 
  94   0.0000       3.194044        86.9144 
  95   0.0000       3.194045        86.9144 
  96   0.0000       3.260580        88.7249 
  97   0.0000       3.369694        91.6940 
  98   0.0000       3.382025        92.0296 
  99   0.0000       3.382099        92.0316 
 100   0.0000       3.435214        93.4769 
 101   0.0000       3.435263        93.4783 
 102   0.0000       3.507379        95.4406 
 103   0.0000       3.507385        95.4408 
 104   0.0000       3.766487       102.4913 
 105   0.0000       3.766526       102.4924 
 106   0.0000       3.771185       102.6192 
 107   0.0000       3.898682       106.0885 
 108   0.0000       3.912395       106.4617 
 109   0.0000       3.912445       106.4630 
 110   0.0000       4.121708       112.1574 
 111   0.0000       4.121738       112.1582 
 112   0.0000       4.292627       116.8083 
 113   0.0000       4.434159       120.6596 
 114   0.0000       5.148551       140.0992 
 115   0.0000       5.539452       150.7362 
 116   0.0000       5.539537       150.7385 
 117   0.0000       6.875976       187.1048 
 118   0.0000       6.910646       188.0482 
 119   0.0000       6.910650       188.0483 
 120   0.0000       6.914242       188.1461 
 121   0.0000       6.918923       188.2735 
 122   0.0000       6.921489       188.3433 
 123   0.0000       6.921525       188.3443 
 124   0.0000       6.956439       189.2943 
 125   0.0000       6.956493       189.2958 
 126   0.0000       7.047949       191.7844 
 127   0.0000       7.062126       192.1702 
 128   0.0000       7.062136       192.1705 
 129   0.0000       7.183152       195.4635 
 130   0.0000       7.183167       195.4639 
 131   0.0000       7.315085       199.0536 
 132   0.0000       7.449576       202.7133 
 133   0.0000       7.449586       202.7136 
 134   0.0000       7.551192       205.4784 
 135   0.0000       7.551226       205.4793 
 136   0.0000       7.689791       209.2498 
 137   0.0000       8.028808       218.4750 
 138   0.0000       8.483194       230.8394 
 139   0.0000       8.533405       232.2058 
 140   0.0000       8.533420       232.2062 
 141   0.0000       8.584166       233.5870 
 142   0.0000       8.584178       233.5874 
 143   0.0000       8.591462       233.7856 
 144   0.0000       8.818238       239.9565 
 145   0.0000       8.864656       241.2196 
 146   0.0000       8.864663       241.2197 
 147   0.0000       9.025945       245.6084 
 148   0.0000       9.025976       245.6093 
 149   0.0000       9.141628       248.7563 
 150   0.0000       9.286805       252.7068 
 151   0.0000       9.347789       254.3663 
 152   0.0000       9.347799       254.3665 
 153   0.0000      23.056986       627.4125 
 154   0.0000      57.157492      1555.3344 
 155   0.0000      57.335439      1560.1766 
 156   0.0000      57.335447      1560.1768 

                    ********************************
                    * MULLIKEN POPULATION ANALYSIS *
                    ********************************

--------------------------------------------
MULLIKEN ATOMIC CHARGES AND SPIN POPULATIONS
--------------------------------------------
   0 C :    0.505385    0.887321
   1 F :   -0.168377    0.037533
   2 F :   -0.168506    0.037573
   3 F :   -0.168502    0.037572
Sum of atomic charges         :    0.0000000
Sum of atomic spin populations:    1.0000000

-----------------------------------------------------
MULLIKEN REDUCED ORBITAL CHARGES AND SPIN POPULATIONS
-----------------------------------------------------
CHARGE
  0 C s       :     3.030087  s :     3.030087
      pz      :     1.084971  p :     2.146372
      px      :     0.530778
      py      :     0.530623
      dz2     :     0.022849  d :     0.280077
      dxz     :     0.046666
      dyz     :     0.046654
      dx2y2   :     0.081956
      dxy     :     0.081953
      f0      :     0.004903  f :     0.038079
      f+1     :     0.002349
      f-1     :     0.002348
      f+2     :     0.004393
      f-2     :     0.004392
      f+3     :     0.005392
      f-3     :     0.014301
  1 F s       :     3.953528  s :     3.953528
      pz      :     1.885152  p :     5.198912
      px      :     1.403784
      py      :     1.909976
      dz2     :     0.001132  d :     0.015131
      dxz     :     0.009325
      dyz     :    -0.000151
      dx2y2   :     0.006653
      dxy     :    -0.001828
      f0      :     0.000088  f :     0.000807
      f+1     :     0.000158
      f-1     :     0.000011
      f+2     :     0.000147
      f-2     :     0.000004
      f+3     :     0.000252
      f-3     :     0.000148
  2 F s       :     3.953570  s :     3.953570
      pz      :     1.885141  p :     5.198984
      px      :     1.783480
      py      :     1.530363
      dz2     :     0.001136  d :     0.015145
      dxz     :     0.002217
      dyz     :     0.006956
      dx2y2   :     0.000297
      dxy     :     0.004539
      f0      :     0.000088  f :     0.000807
      f+1     :     0.000048
      f-1     :     0.000121
      f+2     :     0.000040
      f-2     :     0.000111
      f+3     :     0.000252
      f-3     :     0.000148
  3 F s       :     3.953568  s :     3.953568
      pz      :     1.885141  p :     5.198984
      px      :     1.783480
      py      :     1.530363
      dz2     :     0.001136  d :     0.015144
      dxz     :     0.002217
      dyz     :     0.006956
      dx2y2   :     0.000297
      dxy     :     0.004539
      f0      :     0.000088  f :     0.000807
      f+1     :     0.000048
      f-1     :     0.000121
      f+2     :     0.000040
      f-2     :     0.000111
      f+3     :     0.000252
      f-3     :     0.000148

SPIN
  0 C s       :     0.134299  s :     0.134299
      pz      :     0.718527  p :     0.747404
      px      :     0.014446
      py      :     0.014431
      dz2     :     0.009030  d :     0.006830
      dxz     :    -0.002083
      dyz     :    -0.002084
      dx2y2   :     0.000987
      dxy     :     0.000980
      f0      :    -0.000503  f :    -0.001212
      f+1     :    -0.000606
      f-1     :    -0.000606
      f+2     :     0.000019
      f-2     :     0.000019
      f+3     :     0.000339
      f-3     :     0.000126
  1 F s       :     0.000707  s :     0.000707
      pz      :     0.052813  p :     0.033182
      px      :    -0.018106
      py      :    -0.001525
      dz2     :     0.000158  d :     0.003580
      dxz     :     0.003195
      dyz     :     0.000057
      dx2y2   :     0.000199
      dxy     :    -0.000029
      f0      :     0.000016  f :     0.000064
      f+1     :     0.000004
      f-1     :    -0.000002
      f+2     :     0.000042
      f-2     :     0.000000
      f+3     :     0.000003
      f-3     :     0.000001
  2 F s       :     0.000694  s :     0.000694
      pz      :     0.052817  p :     0.033232
      px      :    -0.005664
      py      :    -0.013921
      dz2     :     0.000157  d :     0.003582
      dxz     :     0.000841
      dyz     :     0.002412
      dx2y2   :     0.000027
      dxy     :     0.000143
      f0      :     0.000016  f :     0.000065
      f+1     :    -0.000000
      f-1     :     0.000003
      f+2     :     0.000011
      f-2     :     0.000031
      f+3     :     0.000003
      f-3     :     0.000001
  3 F s       :     0.000694  s :     0.000694
      pz      :     0.052817  p :     0.033232
      px      :    -0.005664
      py      :    -0.013921
      dz2     :     0.000157  d :     0.003582
      dxz     :     0.000841
      dyz     :     0.002412
      dx2y2   :     0.000027
      dxy     :     0.000143
      f0      :     0.000016  f :     0.000065
      f+1     :    -0.000000
      f-1     :     0.000003
      f+2     :     0.000011
      f-2     :     0.000031
      f+3     :     0.000003
      f-3     :     0.000001


                     *******************************
                     * LOEWDIN POPULATION ANALYSIS *
                     *******************************

-------------------------------------------
LOEWDIN ATOMIC CHARGES AND SPIN POPULATIONS
-------------------------------------------
   0 C :   -0.443005    0.618874
   1 F :    0.147681    0.127009
   2 F :    0.147662    0.127059
   3 F :    0.147662    0.127059

----------------------------------------------------
LOEWDIN REDUCED ORBITAL CHARGES AND SPIN POPULATIONS
----------------------------------------------------
CHARGE
  0 C s       :     2.611769  s :     2.611769
      pz      :     0.900523  p :     2.321700
      px      :     0.710601
      py      :     0.710575
      dz2     :     0.142666  d :     1.266089
      dxz     :     0.175954
      dyz     :     0.175955
      dx2y2   :     0.385756
      dxy     :     0.385757
      f0      :     0.023616  f :     0.243447
      f+1     :     0.018403
      f-1     :     0.018402
      f+2     :     0.025775
      f-2     :     0.025775
      f+3     :     0.052119
      f-3     :     0.079358
  1 F s       :     3.562757  s :     3.562757
      pz      :     1.781891  p :     5.093105
      px      :     1.528643
      py      :     1.782570
      dz2     :     0.022556  d :     0.194422
      dxz     :     0.072320
      dyz     :     0.001460
      dx2y2   :     0.046367
      dxy     :     0.051719
      f0      :     0.000276  f :     0.002036
      f+1     :     0.000336
      f-1     :     0.000023
      f+2     :     0.000507
      f-2     :     0.000015
      f+3     :     0.000526
      f-3     :     0.000352
  2 F s       :     3.562757  s :     3.562757
      pz      :     1.781889  p :     5.093123
      px      :     1.719099
      py      :     1.592135
      dz2     :     0.022556  d :     0.194423
      dxz     :     0.019175
      dyz     :     0.054607
      dx2y2   :     0.050381
      dxy     :     0.047705
      f0      :     0.000276  f :     0.002036
      f+1     :     0.000102
      f-1     :     0.000258
      f+2     :     0.000138
      f-2     :     0.000384
      f+3     :     0.000526
      f-3     :     0.000352
  3 F s       :     3.562757  s :     3.562757
      pz      :     1.781889  p :     5.093123
      px      :     1.719099
      py      :     1.592135
      dz2     :     0.022556  d :     0.194423
      dxz     :     0.019175
      dyz     :     0.054607
      dx2y2   :     0.050381
      dxy     :     0.047705
      f0      :     0.000276  f :     0.002036
      f+1     :     0.000102
      f-1     :     0.000258
      f+2     :     0.000138
      f-2     :     0.000384
      f+3     :     0.000526
      f-3     :     0.000352

SPIN
  0 C s       :     0.059192  s :     0.059192
      pz      :     0.521549  p :     0.539913
      px      :     0.009187
      py      :     0.009177
      dz2     :     0.021907  d :     0.012217
      dxz     :    -0.004114
      dyz     :    -0.004114
      dx2y2   :    -0.000731
      dxy     :    -0.000732
      f0      :     0.004912  f :     0.007552
      f+1     :    -0.000569
      f-1     :    -0.000569
      f+2     :    -0.000123
      f-2     :    -0.000123
      f+3     :     0.004039
      f-3     :    -0.000014
  1 F s       :     0.008508  s :     0.008508
      pz      :     0.074054  p :     0.065979
      px      :    -0.007554
      py      :    -0.000521
      dz2     :     0.001177  d :     0.051816
      dxz     :     0.048245
      dyz     :    -0.000068
      dx2y2   :     0.002267
      dxy     :     0.000194
      f0      :     0.000216  f :     0.000706
      f+1     :     0.000041
      f-1     :     0.000000
      f+2     :     0.000410
      f-2     :    -0.000000
      f+3     :     0.000030
      f-3     :     0.000008
  2 F s       :     0.008509  s :     0.008509
      pz      :     0.074056  p :     0.066026
      px      :    -0.002271
      py      :    -0.005759
      dz2     :     0.001176  d :     0.051818
      dxz     :     0.012011
      dyz     :     0.036170
      dx2y2   :     0.000711
      dxy     :     0.001749
      f0      :     0.000216  f :     0.000706
      f+1     :     0.000011
      f-1     :     0.000031
      f+2     :     0.000102
      f-2     :     0.000308
      f+3     :     0.000030
      f-3     :     0.000008
  3 F s       :     0.008509  s :     0.008509
      pz      :     0.074056  p :     0.066026
      px      :    -0.002271
      py      :    -0.005759
      dz2     :     0.001176  d :     0.051818
      dxz     :     0.012011
      dyz     :     0.036170
      dx2y2   :     0.000711
      dxy     :     0.001749
      f0      :     0.000216  f :     0.000706
      f+1     :     0.000011
      f-1     :     0.000031
      f+2     :     0.000102
      f-2     :     0.000308
      f+3     :     0.000030
      f-3     :     0.000008


                      *****************************
                      * MAYER POPULATION ANALYSIS *
                      *****************************

  NA   - Mulliken gross atomic population
  ZA   - Total nuclear charge
  QA   - Mulliken gross atomic charge
  VA   - Mayer's total valence
  BVA  - Mayer's bonded valence
  FA   - Mayer's free valence

  ATOM       NA         ZA         QA         VA         BVA        FA
  0 C      5.4946     6.0000     0.5054     3.8462     3.1407     0.7055
  1 F      9.1684     9.0000    -0.1684     1.0745     1.0680     0.0065
  2 F      9.1685     9.0000    -0.1685     1.0744     1.0679     0.0064
  3 F      9.1685     9.0000    -0.1685     1.0744     1.0679     0.0064

  Mayer bond orders larger than 0.100000
B(  0-C ,  1-F ) :   1.0469 B(  0-C ,  2-F ) :   1.0469 B(  0-C ,  3-F ) :   1.0469 


-------
TIMINGS
-------

Total SCF time: 0 days 0 hours 0 min 13 sec 

Total time                  ....      13.609 sec
Sum of individual times     ....      12.698 sec  ( 93.3%)

Fock matrix formation       ....      10.755 sec  ( 79.0%)
  Split-RI-J                ....       1.395 sec  ( 13.0% of F)
  Chain of spheres X        ....       3.457 sec  ( 32.1% of F)
  XC integration            ....       2.314 sec  ( 21.5% of F)
    Basis function eval.    ....       0.138 sec  (  6.0% of XC)
    Density eval.           ....       0.179 sec  (  7.7% of XC)
    XC-Functional eval.     ....       0.078 sec  (  3.4% of XC)
    XC-Potential eval.      ....       0.347 sec  ( 15.0% of XC)
Diagonalization             ....       0.433 sec  (  3.2%)
Density matrix formation    ....       0.015 sec  (  0.1%)
Population analysis         ....       0.139 sec  (  1.0%)
Initial guess               ....       0.158 sec  (  1.2%)
Orbital Transformation      ....       0.000 sec  (  0.0%)
Orbital Orthonormalization  ....       0.000 sec  (  0.0%)
DIIS solution               ....       0.618 sec  (  4.5%)
Grid generation             ....       0.580 sec  (  4.3%)

Maximum memory used throughout the entire SCF-calculation: 63.1 MB


-------------------------------------------------------------------------------
                          DFT DISPERSION CORRECTION                            
                                                                               
                              DFTD3 V3.1  Rev 1                                
                              USING zero damping                               
-------------------------------------------------------------------------------
The omegaB97X-D3 functional is recognized. Fit by Chai et al.
Active option DFTDOPT                   ...         3   

molecular C6(AA) [au] = 165.845697 


            DFT-D V3
 parameters
 s6 scaling factor         :     1.0000 
 rs6 scaling factor        :     1.2810 
 s8 scaling factor         :     1.0000 
 rs8 scaling factor        :     1.0940 
 Damping factor alpha6     :    14.0000 
 Damping factor alpha8     :    16.0000 
 ad hoc parameters k1-k3   :    16.0000     1.3333    -4.0000 

 Edisp/kcal,au: -0.071816481700  -0.000114446836 
 E6   /kcal   :  -0.009299067 
 E8   /kcal   :  -0.062517415 
 % E8         :  87.051626168 

-------------------------   ----------------
Dispersion correction           -0.000114447
-------------------------   ----------------


-------------------------   --------------------
FINAL SINGLE POINT ENERGY      -337.603928317617
-------------------------   --------------------



           ************************************************************
           *        Program running with 18 parallel MPI-processes    *
           *              working on a common directory               *
           ************************************************************
------------------------------------------------------------------------------
                         ORCA SCF GRADIENT CALCULATION
------------------------------------------------------------------------------

 ... reading COSX grid (gridx3)
Gradient of the Kohn-Sham DFT energy:
Kohn-Sham wavefunction type      ... UKS
Hartree-Fock exchange scaling    ...    0.196
Number of operators              ...    2
Number of atoms                  ...    4
Basis set dimensions             ...  157
Integral neglect threshold       ... 2.5e-11
Integral primitive cutoff        ... 2.5e-12
SHARK Integral package           ... ON

Nuc. rep. gradient       (SHARK) ... done (  0.0 sec)
HCore & Overlap gradient (SHARK) ... done (  0.0 sec)
RI-J gradient            (SHARK) ... done (  0.2 sec)
COSX-gradient                    ... done (  0.4 sec)
Exchange-correlation gradient    ... done
Dispersion correction            ... done

------------------
CARTESIAN GRADIENT
------------------

WARNING: THERE ARE 3 CONSTRAINED CARTESIAN COORDINATES
   1   C   :    0.000049365    0.000000028   -0.081279487
   2   F   :    0.009362834   -0.000000099    0.027077125
   3   F   :   -0.004523661    0.008630334    0.026892300
   4   F   :   -0.004523572   -0.008630323    0.026892140

Difference to translation invariance:
           :    0.0003649664   -0.0000000590   -0.0004179211

Difference to rotation invariance:
           :    0.0000003196   -0.0005360781   -0.0000000685

Norm of the cartesian gradient     ...    0.0952022329
RMS gradient                       ...    0.0274825174
MAX gradient                       ...    0.0812794868

-------
TIMINGS
-------

Total SCF gradient time            ...        1.164 sec

One electron gradient       ....       0.013 sec  (  1.1%)
RI-J Coulomb gradient       ....       0.171 sec  ( 14.7%)
COSX gradient               ....       0.442 sec  ( 38.0%)
XC gradient                 ....       0.155 sec  ( 13.3%)

Maximum memory used throughout the entire SCFGRAD-calculation: 37.2 MB
------------------------------------------------------------------------------
                         ORCA GEOMETRY RELAXATION STEP
------------------------------------------------------------------------------

Reading the OPT-File                    .... done
Getting information on internals        .... done
Copying old internal coords+grads       .... done
Making the new internal coordinates     .... (new redundants).... done
Validating the new internal coordinates .... (new redundants).... done
Calculating the B-matrix                .... done
Calculating the G,G- and P matrices     .... done
Transforming gradient to internals      .... done
Projecting the internal gradient        .... done
Number of atoms                         ....   4
Number of internal coordinates          ....   7
Current Energy                          ....  -337.603928318 Eh
Current gradient norm                   ....     0.095202233 Eh/bohr
Maximum allowed component of the step   ....  0.300
Current trust radius                    ....  0.300
Evaluating the initial hessian          ....  (Almloef) done
Projecting the Hessian                  .... done
Forming the augmented Hessian           .... done
Diagonalizing the augmented Hessian     .... done
Last element of RFO vector              ....  0.999850338
Lowest eigenvalues of augmented Hessian:
 -0.000205113  0.684895726  0.684895726  0.685100839 1000.000000000
Length of the computed step             ....  0.017302916
The final length of the internal step   ....  0.017302916
Converting the step to cartesian space:
 Initial RMS(Int)=    0.0065398875
Transforming coordinates:
 Iter   0:  RMS(Cart)=    0.0049747665 RMS(Int)=    0.0065398874
 Iter   1:  RMS(Cart)=    0.0000000010 RMS(Int)=    0.0000000018
Imposing constraints:
 Iter   0:  RMS(Cart)=    0.0000000000 RMS(Int)=    0.0000000001
CONVERGED
done
Storing new coordinates                 .... done

                                .--------------------.
          ----------------------|Geometry convergence|-------------------------
          Item                value                   Tolerance       Converged
          ---------------------------------------------------------------------
          RMS gradient        0.0044804824            0.0001000000      NO
          MAX gradient        0.0070104137            0.0003000000      NO
          RMS step            0.0065398875            0.0020000000      NO
          MAX step            0.0102326742            0.0040000000      NO
          ........................................................
          Max(Bonds)      0.0054      Max(Angles)    0.00
          Max(Dihed)        0.00      Max(Improp)    0.00
          ---------------------------------------------------------------------

The optimization has not yet converged - more geometry cycles are needed


    ---------------------------------------------------------------------------
                         Redundant Internal Coordinates
                            (Angstroem and degrees)

        Definition                    Value    dE/dq     Step     New-Value
    ----------------------------------------------------------------------------
     1. B(F   1,C   0)                1.3150  0.006499 -0.0050    1.3100   
     2. B(F   2,C   0)                1.3150  0.007010 -0.0054    1.3096   
     3. B(F   3,C   0)                1.3150  0.007010 -0.0054    1.3096   
     4. A(F   2,C   0,F   3)          119.00  0.016389   -0.00    119.00 C 
     5. A(F   1,C   0,F   2)          119.00  0.003941   -0.00    119.00 C 
     6. A(F   1,C   0,F   3)          119.00  0.003940    0.00    119.00 C 
     7. I(F   1,F   3,F   2,C   0)     17.21 -0.067857    0.00     17.21   
    ----------------------------------------------------------------------------

         *************************************************************
         *                GEOMETRY OPTIMIZATION CYCLE   2            *
         *************************************************************
---------------------------------
CARTESIAN COORDINATES (ANGSTROEM)
---------------------------------
  C     -0.000100    0.000000   -0.000399
  F      1.303233    0.000000   -0.132206
  F     -0.651566    1.128377   -0.132196
  F     -0.651566   -1.128377   -0.132196

----------------------------
CARTESIAN COORDINATES (A.U.)
----------------------------
  NO LB      ZA    FRAG     MASS         X           Y           Z
   0 C     6.0000    0    12.011   -0.000189    0.000000   -0.000754
   1 F     9.0000    0    18.998    2.462753    0.000000   -0.249833
   2 F     9.0000    0    18.998   -1.231282    2.132323   -0.249813
   3 F     9.0000    0    18.998   -1.231282   -2.132323   -0.249813

--------------------------------
INTERNAL COORDINATES (ANGSTROEM)
--------------------------------
 C      0   0   0     0.000000000000     0.00000000     0.00000000
 F      1   0   0     1.309980400357     0.00000000     0.00000000
 F      1   2   0     1.309585102053   119.00000000     0.00000000
 F      1   2   3     1.309585160267   119.00000000   160.22526279

---------------------------
INTERNAL COORDINATES (A.U.)
---------------------------
 C      0   0   0     0.000000000000     0.00000000     0.00000000
 F      1   0   0     2.475504197479     0.00000000     0.00000000
 F      1   2   0     2.474757191943   119.00000000     0.00000000
 F      1   2   3     2.474757301953   119.00000000   160.22526279



           ************************************************************
           *        Program running with 18 parallel MPI-processes    *
           *              working on a common directory               *
           ************************************************************
------------------------------------------------------------------------------
                   ___                                                        
                  /   \      - P O W E R E D   B Y -                         
                 /     \                                                     
                 |  |  |   _    _      __       _____    __    __             
                 |  |  |  | |  | |    /  \     |  _  \  |  |  /  |          
                  \  \/   | |  | |   /    \    | | | |  |  | /  /          
                 / \  \   | |__| |  /  /\  \   | |_| |  |  |/  /          
                |  |  |   |  __  | /  /__\  \  |    /   |      \           
                |  |  |   | |  | | |   __   |  |    \   |  |\   \          
                \     /   | |  | | |  |  |  |  | |\  \  |  | \   \       
                 \___/    |_|  |_| |__|  |__|  |_| \__\ |__|  \__/        
                                                                              
                      - O R C A' S   B I G   F R I E N D -                    
                                      &                                       
                       - I N T E G R A L  F E E D E R -                       
                                                                              
 v1 FN, 2020, v2 2021                                                         
------------------------------------------------------------------------------


Reading SHARK input file /beegfs/scratch/ispackman/PFAS_EPR_calcs/benchmark/JChemEd_CF3_radical/CF3_radical_119.0_degrees_IN-PROGRESS/CF3_radical_119.0_degrees.SHARKINP.tmp ... ok
----------------------
SHARK INTEGRAL PACKAGE
----------------------

Number of atoms                             ...      4
Number of basis functions                   ...    157
Number of shells                            ...     55
Maximum angular momentum                    ...      3
Integral batch strategy                     ... SHARK/LIBINT Hybrid
RI-J (if used) integral strategy            ... SPLIT-RIJ (Revised 2003 algorithm where possible)
Printlevel                                  ...      1
Contraction scheme used                     ... SEGMENTED contraction
Coulomb Range Separation                    ... NOT USED
Exchange Range Separation                   ... Long Range
   Mu parameter                             ...  0.250000
   Scaling (regular/separated)              ...  0.195728  0.804272
Finite Nucleus Model                        ... NOT USED
Auxiliary Coulomb fitting basis             ... AVAILABLE
   # of basis functions in Aux-J            ...    196
   # of shells in Aux-J                     ...     60
   Maximum angular momentum in Aux-J        ...      4
Auxiliary J/K fitting basis                 ... NOT available
Auxiliary Correlation fitting basis         ... NOT available
Auxiliary 'external' fitting basis          ... NOT available
Integral threshold                          ...     2.500000e-11
Primitive cut-off                           ...     2.500000e-12
Primitive pair pre-selection threshold      ...     2.500000e-12

Calculating pre-screening integrals         ... done (  0.0 sec) Dimension = 55
Organizing shell pair data                  ... done (  0.0 sec)
Shell pair information
Total number of shell pairs                 ...      1540
Shell pairs after pre-screening             ...      1492
Total number of primitive shell pairs       ...      4274
Primitive shell pairs kept                  ...      3443
          la=0 lb=0:    276 shell pairs
          la=1 lb=0:    354 shell pairs
          la=1 lb=1:    120 shell pairs
          la=2 lb=0:    276 shell pairs
          la=2 lb=1:    180 shell pairs
          la=2 lb=2:     78 shell pairs
          la=3 lb=0:     90 shell pairs
          la=3 lb=1:     60 shell pairs
          la=3 lb=2:     48 shell pairs
          la=3 lb=3:     10 shell pairs

Calculating one electron integrals          ... done (  0.0 sec)
Calculating RI/J V-Matrix + Cholesky decomp.... done (  0.0 sec)
Calculating Nuclear repulsion               ... done (  0.0 sec) ENN=    122.428760178936 Eh

SHARK setup successfully completed in   0.3 seconds

Maximum memory used throughout the entire GTOINT-calculation: 15.2 MB


           ************************************************************
           *        Program running with 18 parallel MPI-processes    *
           *              working on a common directory               *
           ************************************************************

Diagonalization of the overlap matrix:
Smallest eigenvalue                        ... 2.639e-04
Time for diagonalization                   ...    0.008 sec
Threshold for overlap eigenvalues          ... 1.000e-08
Number of eigenvalues below threshold      ... 0
Time for construction of square roots      ...    0.016 sec
Total time needed                          ...    0.026 sec

-------------------
DFT GRID GENERATION
-------------------

General Integration Accuracy     IntAcc      ... 4.388
Radial Grid Type                 RadialGrid  ... OptM3 with GC (2021)
Angular Grid (max. ang.)         AngularGrid ... 4 (Lebedev-302)
Angular grid pruning method      GridPruning ... 4 (adaptive)
Weight generation scheme         WeightScheme... Becke
Basis function cutoff            BFCut       ... 1.0000e-11
Integration weight cutoff        WCut        ... 1.0000e-14
Angular grids for H and He will be reduced by one unit
Partially contracted basis set               ... off
Rotationally invariant grid construction     ... off

Total number of grid points                  ...    25761
Total number of batches                      ...      405
Average number of points per batch           ...       63
Average number of grid points per atom       ...     6440
Time for grid setup =    0.148 sec

--------------------
COSX GRID GENERATION
--------------------

GRIDX 1
-------
General Integration Accuracy     IntAcc      ... 3.816
Radial Grid Type                 RadialGrid  ... OptM3 with GC (2021)
Angular Grid (max. ang.)         AngularGrid ... 1 (Lebedev-50)
Angular grid pruning method      GridPruning ... 4 (adaptive)
Weight generation scheme         WeightScheme... Becke
Basis function cutoff            BFCut       ... 1.0000e-11
Integration weight cutoff        WCut        ... 1.0000e-14
Angular grids for H and He will be reduced by one unit
Partially contracted basis set               ... on
Rotationally invariant grid construction     ... off

Total number of grid points                  ...     3268
Total number of batches                      ...       52
Average number of points per batch           ...       62
Average number of grid points per atom       ...      817
UseSFitting                                  ... on

GRIDX 2
-------
General Integration Accuracy     IntAcc      ... 4.020
Radial Grid Type                 RadialGrid  ... OptM3 with GC (2021)
Angular Grid (max. ang.)         AngularGrid ... 2 (Lebedev-110)
Angular grid pruning method      GridPruning ... 4 (adaptive)
Weight generation scheme         WeightScheme... Becke
Basis function cutoff            BFCut       ... 1.0000e-11
Integration weight cutoff        WCut        ... 1.0000e-14
Angular grids for H and He will be reduced by one unit
Partially contracted basis set               ... on
Rotationally invariant grid construction     ... off

Total number of grid points                  ...     9125
Total number of batches                      ...      144
Average number of points per batch           ...       63
Average number of grid points per atom       ...     2281
UseSFitting                                  ... on

GRIDX 3
-------
General Integration Accuracy     IntAcc      ... 4.338
Radial Grid Type                 RadialGrid  ... OptM3 with GC (2021)
Angular Grid (max. ang.)         AngularGrid ... 3 (Lebedev-194)
Angular grid pruning method      GridPruning ... 4 (adaptive)
Weight generation scheme         WeightScheme... Becke
Basis function cutoff            BFCut       ... 1.0000e-11
Integration weight cutoff        WCut        ... 1.0000e-14
Angular grids for H and He will be reduced by one unit
Partially contracted basis set               ... on
Rotationally invariant grid construction     ... off

Total number of grid points                  ...    19656
[...]

  NA   - Mulliken gross atomic population
  ZA   - Total nuclear charge
  QA   - Mulliken gross atomic charge
  VA   - Mayer's total valence
  BVA  - Mayer's bonded valence
  FA   - Mayer's free valence

  ATOM       NA         ZA         QA         VA         BVA        FA
  0 C      5.4895     6.0000     0.5105     3.8423     3.1383     0.7040
  1 F      9.1702     9.0000    -0.1702     1.0718     1.0653     0.0065
  2 F      9.1702     9.0000    -0.1702     1.0720     1.0655     0.0065
  3 F      9.1702     9.0000    -0.1702     1.0719     1.0655     0.0065

  Mayer bond orders larger than 0.100000
B(  0-C ,  1-F ) :   1.0460 B(  0-C ,  2-F ) :   1.0462 B(  0-C ,  3-F ) :   1.0462 


-------
TIMINGS
-------

Total SCF time: 0 days 0 hours 0 min 5 sec 

Total time                  ....       5.352 sec
Sum of individual times     ....       4.630 sec  ( 86.5%)

Fock matrix formation       ....       3.688 sec  ( 68.9%)
  Split-RI-J                ....       0.576 sec  ( 15.6% of F)
  Chain of spheres X        ....       1.510 sec  ( 40.9% of F)
  XC integration            ....       0.640 sec  ( 17.4% of F)
    Basis function eval.    ....       0.046 sec  (  7.2% of XC)
    Density eval.           ....       0.057 sec  (  8.9% of XC)
    XC-Functional eval.     ....       0.025 sec  (  3.9% of XC)
    XC-Potential eval.      ....       0.074 sec  ( 11.5% of XC)
Diagonalization             ....       0.132 sec  (  2.5%)
Density matrix formation    ....       0.009 sec  (  0.2%)
Population analysis         ....       0.165 sec  (  3.1%)
Initial guess               ....       0.023 sec  (  0.4%)
Orbital Transformation      ....       0.000 sec  (  0.0%)
Orbital Orthonormalization  ....       0.012 sec  (  0.2%)
DIIS solution               ....       0.081 sec  (  1.5%)
Grid generation             ....       0.532 sec  (  9.9%)

Maximum memory used throughout the entire SCF-calculation: 63.1 MB


-------------------------------------------------------------------------------
                          DFT DISPERSION CORRECTION                            
                                                                               
                              DFTD3 V3.1  Rev 1                                
                              USING zero damping                               
-------------------------------------------------------------------------------
The omegaB97X-D3 functional is recognized. Fit by Chai et al.
Active option DFTDOPT                   ...         3   

molecular C6(AA) [au] = 165.834626 


            DFT-D V3
 parameters
 s6 scaling factor         :     1.0000 
 rs6 scaling factor        :     1.2810 
 s8 scaling factor         :     1.0000 
 rs8 scaling factor        :     1.0940 
 Damping factor alpha6     :    14.0000 
 Damping factor alpha8     :    16.0000 
 ad hoc parameters k1-k3   :    16.0000     1.3333    -4.0000 

 Edisp/kcal,au: -0.069159209693  -0.000110212204 
 E6   /kcal   :  -0.008939296 
 E8   /kcal   :  -0.060219913 
 % E8         :  87.074322719 

-------------------------   ----------------
Dispersion correction           -0.000110212
-------------------------   ----------------


-------------------------   --------------------
FINAL SINGLE POINT ENERGY      -337.604049506081
-------------------------   --------------------

                                *** OPTIMIZATION RUN DONE ***

                            ***************************************
                            *     ORCA property calculations      *
                            ***************************************

                                    ---------------------
                                    Active property flags
                                    ---------------------
   (+) Dipole Moment


------------------------------------------------------------------------------
                       ORCA ELECTRIC PROPERTIES CALCULATION
------------------------------------------------------------------------------

Dipole Moment Calculation                       ... on
Quadrupole Moment Calculation                   ... off
Polarizability Calculation                      ... off
GBWName                                         ... /beegfs/scratch/ispackman/PFAS_EPR_calcs/benchmark/JChemEd_CF3_radical/CF3_radical_119.0_degrees_IN-PROGRESS/CF3_radical_119.0_degrees.gbw
Electron density                                ... /beegfs/scratch/ispackman/PFAS_EPR_calcs/benchmark/JChemEd_CF3_radical/CF3_radical_119.0_degrees_IN-PROGRESS/CF3_radical_119.0_degrees.scfp
The origin for moment calculation is the CENTER OF MASS  = ( 0.000030, -0.000000 -0.206450)

-------------
DIPOLE MOMENT
-------------
                                X             Y             Z
Electronic contribution:     -0.00099      -0.00000      -0.17774
Nuclear contribution   :     -0.00010       0.00000       0.06371
                        -----------------------------------------
Total Dipole Moment    :     -0.00109      -0.00000      -0.11403
                        -----------------------------------------
Magnitude (a.u.)       :      0.11403
Magnitude (Debye)      :      0.28985



--------------------
Rotational spectrum 
--------------------
 
Rotational constants in cm-1:     0.347910     0.347688     0.174519 
Rotational constants in MHz : 10430.092672 10423.415206  5231.943595 

 Dipole components along the rotational axes: 
x,y,z [a.u.] :     0.001090    -0.000000    -0.114027 
x,y,z [Debye]:     0.002772    -0.000000    -0.289834 

 


           ************************************************************
           *        Program running with 18 parallel MPI-processes    *
           *              working on a common directory               *
           ************************************************************

-------------------------------------------------------------------------------
                               ORCA SCF HESSIAN
-------------------------------------------------------------------------------

                   --------- SHARK INITIALIZATION DONE ---------

Hessian of the Kohn-Sham DFT energy:
Kohn-Sham wavefunction type                      ... UKS
Hartree-Fock exchange scaling                    ...    0.196
Number of operators                              ...    2
Number of atoms                                  ...    4
Basis set dimensions                             ...  157
Integral neglect threshold                       ... 2.5e-11
Integral primitive cutoff                        ... 2.5e-12

Setting up DFT Hessian calculations              ... 

HESS GRID
---------

General Integration Accuracy     IntAcc      ... 4.629
Radial Grid Type                 RadialGrid  ... OptM3 with GC (2021)
Angular Grid (max. ang.)         AngularGrid ... 5 (Lebedev-434)
Angular grid pruning method      GridPruning ... 4 (adaptive)
Weight generation scheme         WeightScheme... Becke
Basis function cutoff            BFCut       ... 1.0000e-11
Integration weight cutoff        WCut        ... 1.0000e-14
Angular grids for H and He will be reduced by one unit
Partially contracted basis set               ... off
Rotationally invariant grid construction     ... off

Total number of grid points                  ...    39937
Total number of batches                      ...      626
Average number of points per batch           ...       63
Average number of grid points per atom       ...     9984

Building densities                               ... done   (      0.0 sec)
Calculating rho(r) on the grid                   ... done   (      0.1 sec)
Building xc-kernel on the grid                   ... done   (      0.1 sec)
                                                     done   (      0.6 sec)

Nuclear repulsion Hessian  (SHARK)               ... done   (      0.0 sec)

----------------------------------------------
Forming right-hand sides of CP-SCF equations     ...
----------------------------------------------
One electron integral derivatives  (SHARK)       ... done   (      0.0 sec)
Transforming the overlap derivative matrices     ... done   (      0.0 sec)
Making the Q(x) pseudodensities                  ... done   (      0.0 sec)
Adding the E*S(x)*S(y) terms to the Hessian      ... done   (      0.0 sec)
Calculating energy weighted overlap derivatives  ... done   (      0.0 sec)
Two electron integral derivatives (SHARK-RI)     ... done   (      2.4 sec)
Exchange-correlation integral derivatives        ... done   (      2.1 sec)
tr(F(y)Q(x)) contribution to the Hessian         ... done   (      0.0 sec)
Response fock operator R(S(x)) (SHARK-RIJCOSX)   ... done   (      0.9 sec)
XC Response fock operator R(S(x))                ... done   (      0.4 sec)
tr(F(y)S(x)) contribution to the Hessian         ... done   (      0.0 sec)
Transforming and finalizing RHSs                 ... done   (      0.0 sec)

----------------------------------------------
Solving the CP-SCF equations (RIJCOSX)           ...
----------------------------------------------
     CP-SCF ITERATION   0:   2.1859e-01 (   0.5 sec   0/ 12 done)
     CP-SCF ITERATION   1:   6.2317e-02 (   0.5 sec   0/ 12 done)
     CP-SCF ITERATION   2:   1.9437e-02 (   0.5 sec   0/ 12 done)
     CP-SCF ITERATION   3:   5.4497e-03 (   0.5 sec   0/ 12 done)
     CP-SCF ITERATION   4:   2.6273e-03 (   0.5 sec   0/ 12 done)
     CP-SCF ITERATION   5:   6.5103e-04 (   0.4 sec   1/ 12 done)
     CP-SCF ITERATION   6:   2.2067e-04 (   0.5 sec   3/ 12 done)
     CP-SCF ITERATION   7:   7.6913e-05 (   0.4 sec  12/ 12 done)
                    *** THE CP-SCF HAS CONVERGED ***

                                                 ... done   (      3.9 sec)
Forming perturbed density Hessian contributions  ... done   (      0.0 sec)
2nd integral derivative contribs (SHARK-RI)      ... done   (      6.5 sec)
Exchange-correlation Hessian                     ... done   (      0.9 sec)
Dispersion correction in the Hessian             ... done   (      0.1 sec)
Dipole derivatives                               ... (center of mass:  0.000030, -0.000000 -0.206450)done   (      0.1 sec)

Total SCF Hessian time: 0 days 0 hours 0 min 18 sec 

Writing the Hessian file to the disk             ... done


Maximum memory used throughout the entire SCFHESS-calculation: 142.7 MB

-----------------------
VIBRATIONAL FREQUENCIES
-----------------------

Scaling factor for frequencies =  1.000000000  (already applied!)

   0:         0.00 cm**-1
   1:         0.00 cm**-1
   2:         0.00 cm**-1
   3:         0.00 cm**-1
   4:         0.00 cm**-1
   5:         0.00 cm**-1
   6:      -483.57 cm**-1 ***imaginary mode***
   7:       469.24 cm**-1
   8:       469.52 cm**-1
   9:       916.71 cm**-1
  10:      1402.97 cm**-1
  11:      1404.88 cm**-1


------------
NORMAL MODES
------------

These modes are the Cartesian displacements weighted by the diagonal matrix
M(i,i)=1/sqrt(m[i]) where m[i] is the mass of the displaced atom
Thus, these vectors are normalized but *not* orthogonal

                  0          1          2          3          4          5    
      0       0.000000   0.000000   0.000000   0.000000   0.000000   0.000000
      1       0.000000   0.000000   0.000000   0.000000   0.000000   0.000000
      2       0.000000   0.000000   0.000000   0.000000   0.000000   0.000000
      3       0.000000   0.000000   0.000000   0.000000   0.000000   0.000000
      4       0.000000   0.000000   0.000000   0.000000   0.000000   0.000000
      5       0.000000   0.000000   0.000000   0.000000   0.000000   0.000000
      6       0.000000   0.000000   0.000000   0.000000   0.000000   0.000000
      7       0.000000   0.000000   0.000000   0.000000   0.000000   0.000000
      8       0.000000   0.000000   0.000000   0.000000   0.000000   0.000000
      9       0.000000   0.000000   0.000000   0.000000   0.000000   0.000000
     10       0.000000   0.000000   0.000000   0.000000   0.000000   0.000000
     11       0.000000   0.000000   0.000000   0.000000   0.000000   0.000000
                  6          7          8          9         10         11    
      0       0.000130  -0.357219   0.000013  -0.002256   0.903865   0.000021
      1      -0.000000  -0.000013  -0.357079   0.000000   0.000021  -0.903896
      2      -0.921968  -0.000036   0.000000   0.260849   0.000586   0.000000
      3       0.110581  -0.458694   0.000016   0.555389  -0.344399  -0.000008
      4       0.000000   0.000022   0.609057  -0.000000  -0.000001   0.035684
      5       0.194238  -0.015214   0.000001  -0.055055   0.038405   0.000001
      6      -0.055331   0.342285   0.462447  -0.276982  -0.113520  -0.134057
      7       0.095837   0.462244  -0.191668   0.480100   0.134929   0.267894
      8       0.194326   0.007618  -0.013190  -0.054930  -0.019387  -0.033376
      9      -0.055331   0.342252  -0.462471  -0.276981  -0.113526   0.134051
     10      -0.095837  -0.462258  -0.191635  -0.480100  -0.134942   0.267887
     11       0.194326   0.007619   0.013189  -0.054930  -0.019388   0.033375


-----------
IR SPECTRUM
-----------

 Mode   freq       eps      Int      T**2         TX        TY        TZ
       cm**-1   L/(mol*cm) km/mol    a.u.
----------------------------------------------------------------------------
  7:    469.24   0.000802    4.05  0.000533  (-0.023090 -0.000001  0.000015)
  8:    469.52   0.000796    4.02  0.000529  ( 0.000001 -0.022996 -0.000000)
  9:    916.71   0.000104    0.53  0.000036  (-0.000308 -0.000000  0.005956)
 10:   1402.97   0.067911  343.19  0.015105  ( 0.122904  0.000003  0.000050)
 11:   1404.88   0.068009  343.69  0.015107  ( 0.000003 -0.122910 -0.000000)

* The epsilon (eps) is given for a Dirac delta lineshape.
** The dipole moment derivative (T) already includes vibrational overlap.

The first frequency considered to be a vibration is 7
The total number of vibrations considered is 5


--------------------------
THERMOCHEMISTRY AT 298.15K
--------------------------

Temperature         ... 298.15 K
Pressure            ... 1.00 atm
Total Mass          ... 69.00 AMU

Throughout the following assumptions are being made:
  (1) The electronic state is orbitally nondegenerate
      but the spin degeneracy is treated
  (2) There are no thermally accessible electronically excited states
  (3) Hindered rotations indicated by low frequency modes are not
      treated as such but are treated as vibrations and this may
      cause some error
  (4) All equations used are the standard statistical mechanics
      equations for an ideal gas
  (5) All vibrations are strictly harmonic

freq.     469.24  E(vib)   ...       0.16 
freq.     469.52  E(vib)   ...       0.16 
freq.     916.71  E(vib)   ...       0.03 
freq.    1402.97  E(vib)   ...       0.00 
freq.    1404.88  E(vib)   ...       0.00 

------------
INNER ENERGY
------------

The inner energy is: U= E(el) + E(ZPE) + E(vib) + E(rot) + E(trans)
    E(el)   - is the total energy from the electronic structure calculation
              = E(kin-el) + E(nuc-el) + E(el-el) + E(nuc-nuc)
    E(ZPE)  - the the zero temperature vibrational energy from the frequency calculation
    E(vib)  - the the finite temperature correction to E(ZPE) due to population
              of excited vibrational states
    E(rot)  - is the rotational thermal energy
    E(trans)- is the translational thermal energy

Summary of contributions to the inner energy U:
Electronic energy                ...   -337.60404951 Eh
Zero point energy                ...      0.01062381 Eh       6.67 kcal/mol
Thermal vibrational correction   ...      0.00056088 Eh       0.35 kcal/mol
Thermal rotational correction    ...      0.00141627 Eh       0.89 kcal/mol
Thermal translational correction ...      0.00141627 Eh       0.89 kcal/mol
-----------------------------------------------------------------------
Total thermal energy                   -337.59003227 Eh


Summary of corrections to the electronic energy:
(perhaps to be used in another calculation)
Total thermal correction                  0.00339342 Eh       2.13 kcal/mol
Non-thermal (ZPE) correction              0.01062381 Eh       6.67 kcal/mol
-----------------------------------------------------------------------
Total correction                          0.01401724 Eh       8.80 kcal/mol


--------
ENTHALPY
--------

The enthalpy is H = U + kB*T
                kB is Boltzmann's constant
Total free energy                 ...   -337.59003227 Eh 
Thermal Enthalpy correction       ...      0.00094421 Eh       0.59 kcal/mol
-----------------------------------------------------------------------
Total Enthalpy                    ...   -337.58908806 Eh


Note: Rotational entropy computed according to Herzberg 
Infrared and Raman Spectra, Chapter V,1, Van Nostrand Reinhold, 1945 
Point Group:  Cs, Symmetry Number:   1  
Rotational constants in cm-1:     0.347910     0.347688     0.174519 

Vibrational entropy computed according to the QRRHO of S. Grimme
Chem.Eur.J. 2012 18 9955


-------
ENTROPY
-------

The entropy contributions are T*S = T*(S(el)+S(vib)+S(rot)+S(trans))
     S(el)   - electronic entropy
     S(vib)  - vibrational entropy
     S(rot)  - rotational entropy
     S(trans)- translational entropy
The entropies will be listed as multiplied by the temperature to get
units of energy

Electronic entropy                ...      0.00065446 Eh      0.41 kcal/mol
Vibrational entropy               ...      0.00078260 Eh      0.49 kcal/mol
Rotational entropy                ...      0.01133213 Eh      7.11 kcal/mol
Translational entropy             ...      0.01834582 Eh     11.51 kcal/mol
-----------------------------------------------------------------------
Final entropy term                ...      0.03111500 Eh     19.52 kcal/mol

In case the symmetry of your molecule has not been determined correctly
or in case you have a reason to use a different symmetry number we print 
out the resulting rotational entropy values for sn=1,12 :
 --------------------------------------------------------
|  sn= 1 | S(rot)=       0.01133213 Eh      7.11 kcal/mol|
|  sn= 2 | S(rot)=       0.01067767 Eh      6.70 kcal/mol|
|  sn= 3 | S(rot)=       0.01029484 Eh      6.46 kcal/mol|
|  sn= 4 | S(rot)=       0.01002321 Eh      6.29 kcal/mol|
|  sn= 5 | S(rot)=       0.00981253 Eh      6.16 kcal/mol|
|  sn= 6 | S(rot)=       0.00964038 Eh      6.05 kcal/mol|
|  sn= 7 | S(rot)=       0.00949484 Eh      5.96 kcal/mol|
|  sn= 8 | S(rot)=       0.00936876 Eh      5.88 kcal/mol|
|  sn= 9 | S(rot)=       0.00925755 Eh      5.81 kcal/mol|
|  sn=10 | S(rot)=       0.00915807 Eh      5.75 kcal/mol|
|  sn=11 | S(rot)=       0.00906808 Eh      5.69 kcal/mol|
|  sn=12 | S(rot)=       0.00898593 Eh      5.64 kcal/mol|
 --------------------------------------------------------


-------------------
GIBBS FREE ENERGY
-------------------

The Gibbs free energy is G = H - T*S

Total enthalpy                    ...   -337.58908806 Eh 
Total entropy correction          ...     -0.03111500 Eh    -19.52 kcal/mol
-----------------------------------------------------------------------
Final Gibbs free energy         ...   -337.62020306 Eh

For completeness - the Gibbs free energy minus the electronic energy
G-E(el)                           ...     -0.01615355 Eh    -10.14 kcal/mol


Timings for individual modules:

Sum of individual times         ...       91.395 sec (=   1.523 min)
GTO integral calculation        ...       12.642 sec (=   0.211 min)  13.8 %
SCF iterations                  ...       46.099 sec (=   0.768 min)  50.4 %
SCF Gradient evaluation         ...       11.116 sec (=   0.185 min)  12.2 %
Geometry relaxation             ...        0.198 sec (=   0.003 min)   0.2 %
Analytical frequency calculation...       21.339 sec (=   0.356 min)  23.3 %
                             ****ORCA TERMINATED NORMALLY****
TOTAL RUN TIME: 0 days 0 hours 1 minutes 42 seconds 679 msec

slurmID:    32260078
totalRuntime[s]:    102.716855896
