
                                 *****************
                                 * O   R   C   A *
                                 *****************

                                            #,                                       
                                            ###                                      
                                            ####                                     
                                            #####                                    
                                            ######                                   
                                           ########,                                 
                                     ,,################,,,,,                         
                               ,,#################################,,                 
                          ,,##########################################,,             
                       ,#########################################, ''#####,          
                    ,#############################################,,   '####,        
                  ,##################################################,,,,####,       
                ,###########''''           ''''###############################       
              ,#####''   ,,,,##########,,,,          '''####'''          '####       
            ,##' ,,,,###########################,,,                        '##       
           ' ,,###''''                  '''############,,,                           
         ,,##''                                '''############,,,,        ,,,,,,###''
      ,#''                                            '''#######################'''  
     '                                                          ''''####''''         
             ,#######,   #######,   ,#######,      ##                                
            ,#'     '#,  ##    ##  ,#'     '#,    #''#        ######   ,####,        
            ##       ##  ##   ,#'  ##            #'  '#       #        #'  '#        
            ##       ##  #######   ##           ,######,      #####,   #    #        
            '#,     ,#'  ##    ##  '#,     ,#' ,#      #,         ##   #,  ,#        
             '#######'   ##     ##  '#######'  #'      '#     #####' # '####'        



                  #######################################################
                  #                        -***-                        #
                  #          Department of theory and spectroscopy      #
                  #    Directorship and core code : Frank Neese         #
                  #        Max Planck Institute fuer Kohlenforschung    #
                  #                Kaiser Wilhelm Platz 1               #
                  #                 D-45470 Muelheim/Ruhr               #
                  #                      Germany                        #
                  #                                                     #
                  #                  All rights reserved                #
                  #                        -***-                        #
                  #######################################################


                         Program Version 5.0.4 -  RELEASE  -


 With contributions from (in alphabetic order):
   Daniel Aravena         : Magnetic Suceptibility
   Michael Atanasov       : Ab Initio Ligand Field Theory (pilot matlab implementation)
   Alexander A. Auer      : GIAO ZORA, VPT2 properties, NMR spectrum
   Ute Becker             : Parallelization
   Giovanni Bistoni       : ED, misc. LED, open-shell LED, HFLD
   Martin Brehm           : Molecular dynamics
   Dmytro Bykov           : SCF Hessian
   Vijay G. Chilkuri      : MRCI spin determinant printing, contributions to CSF-ICE
   Dipayan Datta          : RHF DLPNO-CCSD density
   Achintya Kumar Dutta   : EOM-CC, STEOM-CC
   Dmitry Ganyushin       : Spin-Orbit,Spin-Spin,Magnetic field MRCI
   Miquel Garcia          : C-PCM and meta-GGA Hessian, CC/C-PCM, Gaussian charge scheme
   Yang Guo               : DLPNO-NEVPT2, F12-NEVPT2, CIM, IAO-localization
   Andreas Hansen         : Spin unrestricted coupled pair/coupled cluster methods
   Benjamin Helmich-Paris : MC-RPA, TRAH-SCF, COSX integrals
   Lee Huntington         : MR-EOM, pCC
   Robert Izsak           : Overlap fitted RIJCOSX, COSX-SCS-MP3, EOM
   Marcus Kettner         : VPT2
   Christian Kollmar      : KDIIS, OOCD, Brueckner-CCSD(T), CCSD density, CASPT2, CASPT2-K
   Simone Kossmann        : Meta GGA functionals, TD-DFT gradient, OOMP2, MP2 Hessian
   Martin Krupicka        : Initial AUTO-CI
   Lucas Lang             : DCDCAS
   Marvin Lechner         : AUTO-CI (C++ implementation), FIC-MRCC
   Dagmar Lenk            : GEPOL surface, SMD
   Dimitrios Liakos       : Extrapolation schemes; Compound Job, initial MDCI parallelization
   Dimitrios Manganas     : Further ROCIS development; embedding schemes
   Dimitrios Pantazis     : SARC Basis sets
   Anastasios Papadopoulos: AUTO-CI, single reference methods and gradients
   Taras Petrenko         : DFT Hessian,TD-DFT gradient, ASA, ECA, R-Raman, ABS, FL, XAS/XES, NRVS
   Peter Pinski           : DLPNO-MP2, DLPNO-MP2 Gradient
   Christoph Reimann      : Effective Core Potentials
   Marius Retegan         : Local ZFS, SOC
   Christoph Riplinger    : Optimizer, TS searches, QM/MM, DLPNO-CCSD(T), (RO)-DLPNO pert. Triples
   Tobias Risthaus        : Range-separated hybrids, TD-DFT gradient, RPA, STAB
   Michael Roemelt        : Original ROCIS implementation
   Masaaki Saitow         : Open-shell DLPNO-CCSD energy and density
   Barbara Sandhoefer     : DKH picture change effects
   Avijit Sen             : IP-ROCIS
   Kantharuban Sivalingam : CASSCF convergence, NEVPT2, FIC-MRCI
   Bernardo de Souza      : ESD, SOC TD-DFT
   Georgi Stoychev        : AutoAux, RI-MP2 NMR, DLPNO-MP2 response
   Willem Van den Heuvel  : Paramagnetic NMR
   Boris Wezisla          : Elementary symmetry handling
   Frank Wennmohs         : Technical directorship


 We gratefully acknowledge several colleagues who have allowed us to
 interface, adapt or use parts of their codes:
   Stefan Grimme, W. Hujo, H. Kruse, P. Pracht,  : VdW corrections, initial TS optimization,
                  C. Bannwarth, S. Ehlert          DFT functionals, gCP, sTDA/sTD-DF
   Ed Valeev, F. Pavosevic, A. Kumar             : LibInt (2-el integral package), F12 methods
   Garnet Chan, S. Sharma, J. Yang, R. Olivares  : DMRG
   Ulf Ekstrom                                   : XCFun DFT Library
   Mihaly Kallay                                 : mrcc  (arbitrary order and MRCC methods)
   Jiri Pittner, Ondrej Demel                    : Mk-CCSD
   Frank Weinhold                                : gennbo (NPA and NBO analysis)
   Christopher J. Cramer and Donald G. Truhlar   : smd solvation model
   Lars Goerigk                                  : TD-DFT with DH, B97 family of functionals
   V. Asgeirsson, H. Jonsson                     : NEB implementation
   FAccTs GmbH                                   : IRC, NEB, NEB-TS, DLPNO-Multilevel, CI-OPT
                                                   MM, QMMM, 2- and 3-layer-ONIOM, Crystal-QMMM,
                                                   LR-CPCM, SF, NACMEs, symmetry and pop. for TD-DFT,
                                                   nearIR, NL-DFT gradient (VV10), updates on ESD,
                                                   ML-optimized integration grids
   S Lehtola, MJT Oliveira, MAL Marques          : LibXC Library
   Liviu Ungur et al                             : ANISO software


 Your calculation uses the libint2 library for the computation of 2-el integrals
 For citations please refer to: http://libint.valeyev.net

 Your ORCA version has been built with support for libXC version: 5.1.0
 For citations please refer to: https://tddft.org/programs/libxc/

 This ORCA versions uses:
   CBLAS   interface :  Fast vector & matrix operations
   LAPACKE interface :  Fast linear algebra routines
   SCALAPACK package :  Parallel linear algebra routines
   Shared memory     :  Shared parallel matrices
   BLAS/LAPACK       :  OpenBLAS 0.3.15  USE64BITINT DYNAMIC_ARCH NO_AFFINITY SkylakeX SINGLE_THREADED
        Core in use  :  SkylakeX
   Copyright (c) 2011-2014, The OpenBLAS Project


Your calculation utilizes the atom-pairwise dispersion correction
with the zero-damping scheme (D30)
Cite in your paper:
S.Grimme, J.Antony, S.Ehrlich and H.Krieg, J.Chem.Phys., 132, (2010), 154104 
   

XCFun DFT library Copyright 2009-2010 Ulf Ekstrom and contributors.
See http://admol.org/xcfun for more information.
This is free software; see the source code for copying conditions.
There is ABSOLUTELY NO WARRANTY; not even for MERCHANTABILITY or FITNESS FOR A PARTICULAR PURPOSE.
For details see the documentation.
Scientific users of this library should cite U. Ekstrom, L. Visscher, R. Bast, A. J. Thorvaldsen and K. Ruud;
J.Chem.Theor.Comp. 2010, DOI: 10.1021/ct100117s
XCFun Version 0.99 

================================================================================

----- Orbital basis set information -----
Your calculation utilizes the basis: def2-TZVPD
   F. Weigend and R. Ahlrichs, Phys. Chem. Chem. Phys. 7, 3297 (2005).
   D. Rappoport and F. Furche, J. Chem. Phys. 133 134105 (2010).

----- AuxJ basis set information -----
Your calculation utilizes the auxiliary basis: def2/J
   F. Weigend, Phys. Chem. Chem. Phys. 8, 1057 (2006).

================================================================================
                                        WARNINGS
                       Please study these warnings very carefully!
================================================================================


WARNING: Geometry Optimization
  ===> : Switching off AutoStart
         For restart on a previous wavefunction, please use MOREAD

INFO   : the flag for use of the SHARK integral package has been found!

================================================================================
                                       INPUT FILE
================================================================================
NAME = /beegfs/scratch/ispackman/PFAS_EPR_calcs/benchmark/JChemEd_CF3_radical/CF3_radical_117.0_degrees_IN-PROGRESS/CF3_radical_117.0_degrees.inp
|  1> ! UKS TightSCF wB97x-D3 def2-TZVPD xyzfile opt freq
|  2> 
|  3> # CF3 radical 117.0 degrees fixed
|  4> 
|  5> %maxcore 1000
|  6> %pal
|  7> nprocs 18
|  8> end
|  9> 
| 10> %geom Constraints
| 11>         { A * 0 * C }
| 12>     end
| 13> end
| 14> * xyz 0 2
| 15> C 0.00 0.00 0.00
| 16> F 1.2946754347 0.0000000000 -0.2303052729
| 17> F -0.6473377174 1.1212218161 -0.2303052729
| 18> F -0.6473377174 -1.1212218161 -0.2303052729
| 19> **                         ****END OF INPUT****
================================================================================

                       *****************************
                       * Geometry Optimization Run *
                       *****************************

Geometry optimization settings:
Update method            Update   .... BFGS
Choice of coordinates    CoordSys .... Z-matrix Internals
Initial Hessian          InHess   .... Almoef's Model

Convergence Tolerances:
Energy Change            TolE     ....  5.0000e-06 Eh
Max. Gradient            TolMAXG  ....  3.0000e-04 Eh/bohr
RMS Gradient             TolRMSG  ....  1.0000e-04 Eh/bohr
Max. Displacement        TolMAXD  ....  4.0000e-03 bohr
RMS Displacement         TolRMSD  ....  2.0000e-03 bohr
Strict Convergence                ....  False
------------------------------------------------------------------------------
                        ORCA OPTIMIZATION COORDINATE SETUP
------------------------------------------------------------------------------

The optimization will be done in new redundant internal coordinates
Making redundant internal coordinates   ...  (new redundants) done
Evaluating the initial hessian          ...  (Almloef) done
Evaluating the coordinates              ...  done
Calculating the B-matrix                .... done
Calculating the G-matrix                .... done
Diagonalizing the G-matrix              .... done
Imposing constraints:
 Iter   0:  RMS(Cart)=    0.0000000000 RMS(Int)=    0.0000000000
CONVERGED
Will constrain atom 0 coordinate 1 
Will constrain atom 0 coordinate 2 
Will constrain atom 1 coordinate 2 
The first mode is                       ....    1
The number of degrees of freedom        ....    6
Storing new coordinates                 .... done

    -----------------------------------------------------------------
                    Redundant Internal Coordinates


    -----------------------------------------------------------------
         Definition                    Initial Value    Approx d2E/dq
    -----------------------------------------------------------------
      1. B(F   1,C   0)                  1.3150         0.684896   
      2. B(F   2,C   0)                  1.3150         0.684896   
      3. B(F   3,C   0)                  1.3150         0.684896   
      4. A(F   2,C   0,F   3)          117.0000         0.440101 C 
      5. A(F   1,C   0,F   2)          117.0000         0.440101 C 
      6. A(F   1,C   0,F   3)          117.0000         0.440101 C 
      7. I(F   1,F   3,F   2,C   0)     29.6708         0.051634   
    -----------------------------------------------------------------

Number of atoms                         .... 4
Number of degrees of freedom            .... 7

         *************************************************************
         *                GEOMETRY OPTIMIZATION CYCLE   1            *
         *************************************************************
---------------------------------
CARTESIAN COORDINATES (ANGSTROEM)
---------------------------------
  C      0.000000    0.000000    0.000000
  F      1.294675    0.000000   -0.230305
  F     -0.647338    1.121222   -0.230305
  F     -0.647338   -1.121222   -0.230305

----------------------------
CARTESIAN COORDINATES (A.U.)
----------------------------
  NO LB      ZA    FRAG     MASS         X           Y           Z
   0 C     6.0000    0    12.011    0.000000    0.000000    0.000000
   1 F     9.0000    0    18.998    2.446582    0.000000   -0.435214
   2 F     9.0000    0    18.998   -1.223291    2.118802   -0.435214
   3 F     9.0000    0    18.998   -1.223291   -2.118802   -0.435214

--------------------------------
INTERNAL COORDINATES (ANGSTROEM)
--------------------------------
 C      0   0   0     0.000000000000     0.00000000     0.00000000
 F      1   0   0     1.314999999978     0.00000000     0.00000000
 F      1   2   0     1.314999999997   117.00000000     0.00000000
 F      1   2   3     1.314999999997   117.00000000   146.25003631

---------------------------
INTERNAL COORDINATES (A.U.)
---------------------------
 C      0   0   0     0.000000000000     0.00000000     0.00000000
 F      1   0   0     2.484989866064     0.00000000     0.00000000
 F      1   2   0     2.484989866101   117.00000000     0.00000000
 F      1   2   3     2.484989866101   117.00000000   146.25003631

---------------------
BASIS SET INFORMATION
---------------------
There are 2 groups of distinct atoms

 Group   1 Type C   : 12s6p3d1f contracted to 6s3p3d1f pattern {621111/411/111/1}
 Group   2 Type F   : 12s7p3d1f contracted to 6s4p3d1f pattern {621111/4111/111/1}

Atom   0C    basis set group =>   1
Atom   1F    basis set group =>   2
Atom   2F    basis set group =>   2
Atom   3F    basis set group =>   2
---------------------------------
AUXILIARY/J BASIS SET INFORMATION
---------------------------------
There are 2 groups of distinct atoms

 Group   1 Type C   : 12s5p4d2f1g contracted to 6s4p3d1f1g pattern {711111/2111/211/2/1}
 Group   2 Type F   : 12s5p4d2f1g contracted to 6s4p3d1f1g pattern {711111/2111/211/2/1}

Atom   0C    basis set group =>   1
Atom   1F    basis set group =>   2
Atom   2F    basis set group =>   2
Atom   3F    basis set group =>   2


           ************************************************************
           *        Program running with 18 parallel MPI-processes    *
           *              working on a common directory               *
           ************************************************************
------------------------------------------------------------------------------
                           ORCA GTO INTEGRAL CALCULATION
                           -- RI-GTO INTEGRALS CHOSEN --
------------------------------------------------------------------------------
------------------------------------------------------------------------------
                   ___                                                        
                  /   \      - P O W E R E D   B Y -                         
                 /     \                                                     
                 |  |  |   _    _      __       _____    __    __             
                 |  |  |  | |  | |    /  \     |  _  \  |  |  /  |          
                  \  \/   | |  | |   /    \    | | | |  |  | /  /          
                 / \  \   | |__| |  /  /\  \   | |_| |  |  |/  /          
                |  |  |   |  __  | /  /__\  \  |    /   |      \           
                |  |  |   | |  | | |   __   |  |    \   |  |\   \          
                \     /   | |  | | |  |  |  |  | |\  \  |  | \   \       
                 \___/    |_|  |_| |__|  |__|  |_| \__\ |__|  \__/        
                                                                              
                      - O R C A' S   B I G   F R I E N D -                    
                                      &                                       
                       - I N T E G R A L  F E E D E R -                       
                                                                              
 v1 FN, 2020, v2 2021                                                         
------------------------------------------------------------------------------


Reading SHARK input file /beegfs/scratch/ispackman/PFAS_EPR_calcs/benchmark/JChemEd_CF3_radical/CF3_radical_117.0_degrees_IN-PROGRESS/CF3_radical_117.0_degrees.SHARKINP.tmp ... ok
----------------------
SHARK INTEGRAL PACKAGE
----------------------

Number of atoms                             ...      4
Number of basis functions                   ...    157
Number of shells                            ...     55
Maximum angular momentum                    ...      3
Integral batch strategy                     ... SHARK/LIBINT Hybrid
RI-J (if used) integral strategy            ... SPLIT-RIJ (Revised 2003 algorithm where possible)
Printlevel                                  ...      1
Contraction scheme used                     ... SEGMENTED contraction
Coulomb Range Separation                    ... NOT USED
Exchange Range Separation                   ... Long Range
   Mu parameter                             ...  0.250000
   Scaling (regular/separated)              ...  0.195728  0.804272
Finite Nucleus Model                        ... NOT USED
Auxiliary Coulomb fitting basis             ... AVAILABLE
   # of basis functions in Aux-J            ...    196
   # of shells in Aux-J                     ...     60
   Maximum angular momentum in Aux-J        ...      4
Auxiliary J/K fitting basis                 ... NOT available
Auxiliary Correlation fitting basis         ... NOT available
Auxiliary 'external' fitting basis          ... NOT available
Integral threshold                          ...     2.500000e-11
Primitive cut-off                           ...     2.500000e-12
Primitive pair pre-selection threshold      ...     2.500000e-12

Calculating pre-screening integrals         ... done (  0.0 sec) Dimension = 55
Organizing shell pair data                  ... done (  0.0 sec)
Shell pair information
Total number of shell pairs                 ...      1540
Shell pairs after pre-screening             ...      1492
Total number of primitive shell pairs       ...      4274
Primitive shell pairs kept                  ...      3455
          la=0 lb=0:    276 shell pairs
          la=1 lb=0:    354 shell pairs
          la=1 lb=1:    120 shell pairs
          la=2 lb=0:    276 shell pairs
          la=2 lb=1:    180 shell pairs
          la=2 lb=2:     78 shell pairs
          la=3 lb=0:     90 shell pairs
          la=3 lb=1:     60 shell pairs
          la=3 lb=2:     48 shell pairs
          la=3 lb=3:     10 shell pairs

Calculating one electron integrals          ... done (  0.0 sec)
Calculating RI/J V-Matrix + Cholesky decomp.... done (  0.0 sec)
Calculating Nuclear repulsion               ... done (  0.0 sec) ENN=    122.535133560884 Eh

SHARK setup successfully completed in   0.3 seconds

Maximum memory used throughout the entire GTOINT-calculation: 15.2 MB


           ************************************************************
           *        Program running with 18 parallel MPI-processes    *
           *              working on a common directory               *
           ************************************************************
-------------------------------------------------------------------------------
                                 ORCA SCF
-------------------------------------------------------------------------------

------------
SCF SETTINGS
------------
Hamiltonian:
 Density Functional     Method          .... DFT(GTOs)
 Exchange Functional    Exchange        .... WB97X-D3
 Correlation Functional Correlation     .... WB97X-D3
 Gradients option       PostSCFGGA      .... off
 Hybrid DFT is turned on
   Fraction HF Exchange ScalHFX         ....  0.195728
   Scaling of DF-GGA-X  ScalDFX         ....  0.000000
   Scaling of DF-GGA-C  ScalDFC         ....  1.000000
   Scaling of DF-LDA-C  ScalLDAC        ....  1.000000
   Perturbative correction              ....  0.000000
   Density functional embedding theory  .... OFF
 Long-range corrected/Screened/Range-Separated Hybrid DFT is turned on
   Amount of maximum screened exact exchange              ....  0.804272
   Range separation parameter mu (erf(mu*r12)/r12)        ....  0.250000
 RI-approximation to the Coulomb term is turned on
   Number of AuxJ basis functions       .... 196
   RIJ-COSX (HFX calculated with COS-X)).... on


General Settings:
 Integral files         IntName         .... /beegfs/scratch/ispackman/PFAS_EPR_calcs/benchmark/JChemEd_CF3_radical/CF3_radical_117.0_degrees_IN-PROGRESS/CF3_radical_117.0_degrees
 Hartree-Fock type      HFTyp           .... UHF
 Total Charge           Charge          ....    0
 Multiplicity           Mult            ....    2
 Number of Electrons    NEL             ....   33
 Basis Dimension        Dim             ....  157
 Nuclear Repulsion      ENuc            ....    122.5351335609 Eh

Convergence Acceleration:
 DIIS                   CNVDIIS         .... on
   Start iteration      DIISMaxIt       ....    12
   Startup error        DIISStart       ....  0.200000
   # of expansion vecs  DIISMaxEq       ....     5
   Bias factor          DIISBfac        ....   1.050
   Max. coefficient     DIISMaxC        ....  10.000
 Trust-Rad. Augm. Hess. CNVTRAH         .... auto
   Auto Start mean grad. ratio tolernc. ....  1.125000
   Auto Start start iteration           ....    20
   Auto Start num. interpolation iter.  ....    10
   Max. Number of Micro iterations      ....    16
   Max. Number of Macro iterations      .... Maxiter - #DIIS iter
   Number of Davidson start vectors     ....     2
   Converg. threshold I  (grad. norm)   ....   1.000e-05
   Converg. threshold II (energy diff.) ....   1.000e-08
   Grad. Scal. Fac. for Micro threshold ....   0.100
   Minimum threshold for Micro iter.    ....   0.010
   NR start threshold (gradient norm)   ....   0.001
   Initial trust radius                 ....   0.400
   Minimum AH scaling param. (alpha)    ....   1.000
   Maximum AH scaling param. (alpha)    .... 1000.000
   Orbital update algorithm             .... Taylor
   White noise on init. David. guess    .... on
   Maximum white noise                  ....   0.010
   Quad. conv. algorithm                .... NR
 SOSCF                  CNVSOSCF        .... off
 Level Shifting         CNVShift        .... on
   Level shift para.    LevelShift      ....    0.2500
   Turn off err/grad.   ShiftErr        ....    0.0010
 Zerner damping         CNVZerner       .... off
 Static damping         CNVDamp         .... on
   Fraction old density DampFac         ....    0.7000
   Max. Damping (<1)    DampMax         ....    0.9800
   Min. Damping (>=0)   DampMin         ....    0.0000
   Turn off err/grad.   DampErr         ....    0.1000
 Fernandez-Rico         CNVRico         .... off

SCF Procedure:
 Maximum # iterations   MaxIter         ....   125
 SCF integral mode      SCFMode         .... Direct
   Integral package                     .... SHARK and LIBINT hybrid scheme
 Reset frequency        DirectResetFreq ....    20
 Integral Threshold     Thresh          ....  2.500e-11 Eh
 Primitive CutOff       TCut            ....  2.500e-12 Eh

Convergence Tolerance:
 Convergence Check Mode ConvCheckMode   .... Total+1el-Energy
 Convergence forced     ConvForced      .... 0
 Energy Change          TolE            ....  1.000e-08 Eh
 1-El. energy change                    ....  1.000e-05 Eh
 DIIS Error             TolErr          ....  5.000e-07


Diagonalization of the overlap matrix:
Smallest eigenvalue                        ... 2.819e-04
Time for diagonalization                   ...    0.005 sec
Threshold for overlap eigenvalues          ... 1.000e-08
Number of eigenvalues below threshold      ... 0
Time for construction of square roots      ...    0.032 sec
Total time needed                          ...    0.038 sec

Time for model grid setup =    0.072 sec

------------------------------
INITIAL GUESS: MODEL POTENTIAL
------------------------------
Loading Hartree-Fock densities                     ... done
Calculating cut-offs                               ... done
Initializing the effective Hamiltonian             ... done
Setting up the integral package (SHARK)            ... done
Starting the Coulomb interaction                   ... done (   0.1 sec)
Reading the grid                                   ... done
Mapping shells                                     ... done
Starting the XC term evaluation                    ... done (   0.0 sec)
  promolecular density results
     # of electrons  =     32.999565514
     EX              =    -35.093891423
     EC              =     -1.143642786
     EX+EC           =    -36.237534209
Transforming the Hamiltonian                       ... done (   0.0 sec)
Diagonalizing the Hamiltonian                      ... done (   0.0 sec)
Back transforming the eigenvectors                 ... done (   0.0 sec)
Now organizing SCF variables                       ... done
                      ------------------
                      INITIAL GUESS DONE (   0.2 sec)
                      ------------------
-------------------
DFT GRID GENERATION
-------------------

General Integration Accuracy     IntAcc      ... 4.388
Radial Grid Type                 RadialGrid  ... OptM3 with GC (2021)
Angular Grid (max. ang.)         AngularGrid ... 4 (Lebedev-302)
Angular grid pruning method      GridPruning ... 4 (adaptive)
Weight generation scheme         WeightScheme... Becke
Basis function cutoff            BFCut       ... 1.0000e-11
Integration weight cutoff        WCut        ... 1.0000e-14
Angular grids for H and He will be reduced by one unit
Partially contracted basis set               ... off
Rotationally invariant grid construction     ... off

Total number of grid points                  ...    25766
Total number of batches                      ...      405
Average number of points per batch           ...       63
Average number of grid points per atom       ...     6442
Time for grid setup =    0.145 sec

--------------------
COSX GRID GENERATION
--------------------

GRIDX 1
-------
General Integration Accuracy     IntAcc      ... 3.816
Radial Grid Type                 RadialGrid  ... OptM3 with GC (2021)
Angular Grid (max. ang.)         AngularGrid ... 1 (Lebedev-50)
Angular grid pruning method      GridPruning ... 4 (adaptive)
Weight generation scheme         WeightScheme... Becke
Basis function cutoff            BFCut       ... 1.0000e-11
Integration weight cutoff        WCut        ... 1.0000e-14
Angular grids for H and He will be reduced by one unit
Partially contracted basis set               ... on
Rotationally invariant grid construction     ... off

Total number of grid points                  ...     3272
Total number of batches                      ...       52
Average number of points per batch           ...       62
Average number of grid points per atom       ...      818
UseSFitting                                  ... on

GRIDX 2
-------
General Integration Accuracy     IntAcc      ... 4.020
Radial Grid Type                 RadialGrid  ... OptM3 with GC (2021)
Angular Grid (max. ang.)         AngularGrid ... 2 (Lebedev-110)
Angular grid pruning method      GridPruning ... 4 (adaptive)
Weight generation scheme         WeightScheme... Becke
Basis function cutoff            BFCut       ... 1.0000e-11
Integration weight cutoff        WCut        ... 1.0000e-14
Angular grids for H and He will be reduced by one unit
Partially contracted basis set               ... on
Rotationally invariant grid construction     ... off

Total number of grid points                  ...     9147
Total number of batches                      ...      145
Average number of points per batch           ...       63
Average number of grid points per atom       ...     2287
UseSFitting                                  ... on

GRIDX 3
-------
General Integration Accuracy     IntAcc      ... 4.338
Radial Grid Type                 RadialGrid  ... OptM3 with GC (2021)
Angular Grid (max. ang.)         AngularGrid ... 3 (Lebedev-194)
Angular grid pruning method      GridPruning ... 4 (adaptive)
Weight generation scheme         WeightScheme... Becke
Basis function cutoff            BFCut       ... 1.0000e-11
Integration weight cutoff        WCut        ... 1.0000e-14
Angular grids for H and He will be reduced by one unit
Partially contracted basis set               ... on
Rotationally invariant grid construction     ... off

Total number of grid points                  ...    19667
Total number of batches                      ...      309
Average number of points per batch           ...       63
Average number of grid points per atom       ...     4917
UseSFitting                                  ... on

Time for X-Grid setup             =    0.342 sec

--------------
SCF ITERATIONS
--------------
ITER       Energy         Delta-E        Max-DP      RMS-DP      [F,P]     Damp
               ***  Starting incremental Fock matrix formation  ***
  0   -337.5698972233   0.000000000000 0.01474474  0.00034606  0.0622541 0.7000
  1   -337.5903142600  -0.020417036626 0.01070292  0.00023919  0.0298258 0.7000
                               ***Turning on DIIS***
  2   -337.5993249771  -0.009010717165 0.02119162  0.00048759  0.0163941 0.0000
  3   -337.6163043918  -0.016979414639 0.00620329  0.00014685  0.0151161 0.0000
  4   -337.6187741590  -0.002469767291 0.00745497  0.00011758  0.0049750 0.0000
  5   -337.6191258054  -0.000351646383 0.00649306  0.00009143  0.0034132 0.0000
  6   -337.6192670842  -0.000141278756 0.00514799  0.00007080  0.0019103 0.0000
  7   -337.6193209077  -0.000053823485 0.00345904  0.00004559  0.0010722 0.0000
  8   -337.6193372672  -0.000016359543 0.00365011  0.00004766  0.0005508 0.0000
               *** Restarting incremental Fock matrix formation ***
                                   *** Resetting DIIS ***
  9   -337.6193428807  -0.000005613509 0.00078384  0.00000976  0.0001139 0.0000
 10   -337.6193432035  -0.000000322773 0.00012358  0.00000181  0.0000736 0.0000
 11   -337.6193432902  -0.000000086709 0.00014924  0.00000209  0.0000365 0.0000
 12   -337.6193433452  -0.000000055018 0.00005452  0.00000090  0.0000099 0.0000
 13   -337.6193433486  -0.000000003371 0.00003049  0.00000035  0.0000033 0.0000
 14   -337.6193433472   0.000000001433 0.00000371  0.00000007  0.0000014 0.0000
                 **** Energy Check signals convergence ****

               *****************************************************
               *                     SUCCESS                       *
               *           SCF CONVERGED AFTER  15 CYCLES          *
               *****************************************************

Old exchange energy                            =    -10.534660232 Eh
New exchange energy                            =    -10.534670425 Eh
Exchange energy change after final integration =     -0.000010193 Eh
Total energy after final integration           =   -337.619353540 Eh
Final COS-X integration done in                =     0.392 sec

----------------
TOTAL SCF ENERGY
----------------

Total Energy       :         -337.61935354 Eh           -9187.08967 eV

Components:
Nuclear Repulsion  :          122.53513356 Eh            3334.35050 eV
Electronic Energy  :         -460.15448710 Eh          -12521.44017 eV
One Electron Energy:         -711.83615943 Eh          -19370.04665 eV
Two Electron Energy:          251.68167233 Eh            6848.60648 eV
Max COSX asymmetry :            0.00000045 Eh               0.00001 eV

Virial components:
Potential Energy   :         -674.15619320 Eh          -18344.72264 eV
Kinetic Energy     :          336.53683966 Eh            9157.63297 eV
Virial Ratio       :            2.00321663


DFT components:
N(Alpha)           :       16.999837752138 electrons
N(Beta)            :       15.999923176692 electrons
N(Total)           :       32.999760928830 electrons
E(XC)              :      -26.185497702716 Eh       
DFET-embed. en.    :        0.000000000000 Eh       

---------------
SCF CONVERGENCE
---------------

  Last Energy change         ...    8.4981e-11  Tolerance :   1.0000e-08
  Last MAX-Density change    ...    0.0000e+00  Tolerance :   1.0000e-07
  Last RMS-Density change    ...    0.0000e+00  Tolerance :   5.0000e-09
  Last DIIS Error            ...    1.0632e-06  Tolerance :   5.0000e-07

             **** THE GBW FILE WAS UPDATED (/beegfs/scratch/ispackman/PFAS_EPR_calcs/benchmark/JChemEd_CF3_radical/CF3_radical_117.0_degrees_IN-PROGRESS/CF3_radical_117.0_degrees.gbw) ****
             **** DENSITY /beegfs/scratch/ispackman/PFAS_EPR_calcs/benchmark/JChemEd_CF3_radical/CF3_radical_117.0_degrees_IN-PROGRESS/CF3_radical_117.0_degrees.scfp WAS UPDATED ****
             **** ENERGY FILE WAS UPDATED (/beegfs/scratch/ispackman/PFAS_EPR_calcs/benchmark/JChemEd_CF3_radical/CF3_radical_117.0_degrees_IN-PROGRESS/CF3_radical_117.0_degrees.en.tmp) ****
----------------------
UHF SPIN CONTAMINATION
----------------------

Warning: in a DFT calculation there is little theoretical justification to 
         calculate <S**2> as in Hartree-Fock theory. We will do it anyways
         but you should keep in mind that the values have only limited relevance

Expectation value of <S**2>     :     0.752199
Ideal value S*(S+1) for S=0.5   :     0.750000
Deviation                       :     0.002199

             **** THE GBW FILE WAS UPDATED (/beegfs/scratch/ispackman/PFAS_EPR_calcs/benchmark/JChemEd_CF3_radical/CF3_radical_117.0_degrees_IN-PROGRESS/CF3_radical_117.0_degrees.gbw) ****
             **** DENSITY /beegfs/scratch/ispackman/PFAS_EPR_calcs/benchmark/JChemEd_CF3_radical/CF3_radical_117.0_degrees_IN-PROGRESS/CF3_radical_117.0_degrees.scfp WAS UPDATED ****
----------------
ORBITAL ENERGIES
----------------
                 SPIN UP ORBITALS
  NO   OCC          E(Eh)            E(eV) 
   0   1.0000     -24.858071      -676.4225 
   1   1.0000     -24.858063      -676.4223 
   2   1.0000     -24.858052      -676.4220 
   3   1.0000     -10.526827      -286.4495 
   4   1.0000      -1.462444       -39.7951 
   5   1.0000      -1.388372       -37.7795 
   6   1.0000      -1.388371       -37.7795 
   7   1.0000      -0.836699       -22.7677 
   8   1.0000      -0.734893       -19.9975 
   9   1.0000      -0.734888       -19.9973 
  10   1.0000      -0.697970       -18.9927 
  11   1.0000      -0.604711       -16.4550 
  12   1.0000      -0.604708       -16.4549 
  13   1.0000      -0.585332       -15.9277 
  14   1.0000      -0.585322       -15.9274 
  15   1.0000      -0.554912       -15.0999 
  16   1.0000      -0.323009        -8.7895 
  17   0.0000       0.062261         1.6942 
  18   0.0000       0.100886         2.7453 
  19   0.0000       0.100887         2.7453 
  20   0.0000       0.117974         3.2102 
  21   0.0000       0.154620         4.2074 
  22   0.0000       0.154621         4.2074 
  23   0.0000       0.165577         4.5056 
  24   0.0000       0.173270         4.7149 
  25   0.0000       0.173271         4.7149 
  26   0.0000       0.195897         5.3306 
  27   0.0000       0.237365         6.4590 
  28   0.0000       0.275350         7.4927 
  29   0.0000       0.275352         7.4927 
  30   0.0000       0.321603         8.7513 
  31   0.0000       0.354909         9.6576 
  32   0.0000       0.375504        10.2180 
  33   0.0000       0.375508        10.2181 
  34   0.0000       0.383143        10.4258 
  35   0.0000       0.383150        10.4260 
  36   0.0000       0.402984        10.9658 
  37   0.0000       0.437007        11.8916 
  38   0.0000       0.437007        11.8916 
  39   0.0000       0.478799        13.0288 
  40   0.0000       0.491207        13.3664 
  41   0.0000       0.491208        13.3665 
  42   0.0000       0.627060        17.0632 
  43   0.0000       0.651863        17.7381 
  44   0.0000       0.651866        17.7382 
  45   0.0000       0.667204        18.1555 
  46   0.0000       0.667206        18.1556 
  47   0.0000       0.717555        19.5257 
  48   0.0000       0.734034        19.9741 
  49   0.0000       0.740298        20.1445 
  50   0.0000       0.740302        20.1446 
  51   0.0000       0.740852        20.1596 
  52   0.0000       0.782027        21.2800 
  53   0.0000       0.782027        21.2800 
  54   0.0000       0.860325        23.4106 
  55   0.0000       0.860326        23.4107 
  56   0.0000       0.867472        23.6051 
  57   0.0000       0.969866        26.3914 
  58   0.0000       0.973694        26.4956 
  59   0.0000       0.973697        26.4956 
  60   0.0000       1.047980        28.5170 
  61   0.0000       1.047987        28.5172 
  62   0.0000       1.060727        28.8638 
  63   0.0000       1.146893        31.2085 
  64   0.0000       1.146894        31.2086 
  65   0.0000       1.177409        32.0389 
  66   0.0000       1.268646        34.5216 
  67   0.0000       1.272655        34.6307 
  68   0.0000       1.272668        34.6311 
  69   0.0000       1.272934        34.6383 
  70   0.0000       1.305543        35.5256 
  71   0.0000       1.305554        35.5259 
  72   0.0000       1.495020        40.6816 
  73   0.0000       1.495035        40.6820 
  74   0.0000       1.710577        46.5472 
  75   0.0000       2.094015        56.9810 
  76   0.0000       2.147713        58.4422 
  77   0.0000       2.147717        58.4424 
  78   0.0000       2.175969        59.2111 
  79   0.0000       2.203067        59.9485 
  80   0.0000       2.203091        59.9492 
  81   0.0000       2.294513        62.4369 
  82   0.0000       2.313932        62.9653 
  83   0.0000       2.383931        64.8701 
  84   0.0000       2.383945        64.8704 
  85   0.0000       2.500276        68.0360 
  86   0.0000       2.543500        69.2121 
  87   0.0000       2.543509        69.2124 
  88   0.0000       2.753071        74.9149 
  89   0.0000       2.753089        74.9154 
  90   0.0000       2.798940        76.1630 
  91   0.0000       2.932899        79.8082 
  92   0.0000       2.932905        79.8084 
  93   0.0000       3.119886        84.8964 
  94   0.0000       3.195178        86.9452 
  95   0.0000       3.195225        86.9465 
  96   0.0000       3.253319        88.5273 
  97   0.0000       3.334136        90.7265 
  98   0.0000       3.334157        90.7270 
  99   0.0000       3.372089        91.7592 
 100   0.0000       3.372108        91.7597 
 101   0.0000       3.374206        91.8168 
 102   0.0000       3.511919        95.5642 
 103   0.0000       3.511951        95.5650 
 104   0.0000       3.739708       101.7626 
 105   0.0000       3.787679       103.0680 
 106   0.0000       3.787730       103.0694 
 107   0.0000       3.884129       105.6925 
 108   0.0000       3.947327       107.4122 
 109   0.0000       3.947466       107.4160 
 110   0.0000       4.119415       112.0950 
 111   0.0000       4.119450       112.0959 
 112   0.0000       4.263561       116.0174 
 113   0.0000       4.316113       117.4474 
 114   0.0000       5.149441       140.1234 
 115   0.0000       5.480516       149.1324 
 116   0.0000       5.480598       149.1347 
 117   0.0000       6.879370       187.1972 
 118   0.0000       6.904507       187.8812 
 119   0.0000       6.904528       187.8818 
 120   0.0000       6.907238       187.9555 
 121   0.0000       6.911087       188.0602 
 122   0.0000       6.911097       188.0605 
 123   0.0000       6.915048       188.1680 
 124   0.0000       6.939491       188.8331 
 125   0.0000       6.939567       188.8352 
 126   0.0000       7.043829       191.6723 
 127   0.0000       7.087298       192.8552 
 128   0.0000       7.087372       192.8572 
 129   0.0000       7.155920       194.7225 
 130   0.0000       7.155940       194.7230 
 131   0.0000       7.284930       198.2330 
 132   0.0000       7.428300       202.1343 
 133   0.0000       7.428301       202.1343 
 134   0.0000       7.600389       206.8171 
 135   0.0000       7.600431       206.8182 
 136   0.0000       7.638161       207.8449 
 137   0.0000       7.955443       216.4786 
 138   0.0000       8.477245       230.6776 
 139   0.0000       8.509072       231.5436 
 140   0.0000       8.509140       231.5455 
 141   0.0000       8.577747       233.4124 
 142   0.0000       8.577778       233.4132 
 143   0.0000       8.585012       233.6100 
 144   0.0000       8.828698       240.2411 
 145   0.0000       8.853809       240.9244 
 146   0.0000       8.853810       240.9244 
 147   0.0000       9.029436       245.7034 
 148   0.0000       9.030987       245.7456 
 149   0.0000       9.031041       245.7471 
 150   0.0000       9.258927       251.9482 
 151   0.0000       9.349995       254.4263 
 152   0.0000       9.350008       254.4266 
 153   0.0000      22.972474       625.1128 
 154   0.0000      57.155021      1555.2672 
 155   0.0000      57.303062      1559.2956 
 156   0.0000      57.303077      1559.2960 

                 SPIN DOWN ORBITALS
  NO   OCC          E(Eh)            E(eV) 
   0   1.0000     -24.855129      -676.3425 
   1   1.0000     -24.855121      -676.3422 
   2   1.0000     -24.855104      -676.3418 
   3   1.0000     -10.513867      -286.0969 
   4   1.0000      -1.451735       -39.5037 
   5   1.0000      -1.380380       -37.5620 
   6   1.0000      -1.380371       -37.5618 
   7   1.0000      -0.817188       -22.2368 
   8   1.0000      -0.725886       -19.7524 
   9   1.0000      -0.725872       -19.7520 
  10   1.0000      -0.660874       -17.9833 
  11   1.0000      -0.595833       -16.2134 
  12   1.0000      -0.595830       -16.2134 
  13   1.0000      -0.572346       -15.5743 
  14   1.0000      -0.572333       -15.5740 
  15   1.0000      -0.551811       -15.0155 
  16   0.0000       0.026334         0.7166 
  17   0.0000       0.077805         2.1172 
  18   0.0000       0.104948         2.8558 
  19   0.0000       0.104949         2.8558 
  20   0.0000       0.133288         3.6269 
  21   0.0000       0.158315         4.3080 
  22   0.0000       0.158315         4.3080 
  23   0.0000       0.176110         4.7922 
  24   0.0000       0.180688         4.9168 
  25   0.0000       0.180688         4.9168 
  26   0.0000       0.215805         5.8724 
  27   0.0000       0.240344         6.5401 
  28   0.0000       0.288009         7.8371 
  29   0.0000       0.288014         7.8373 
  30   0.0000       0.329275         8.9600 
  31   0.0000       0.365355         9.9418 
  32   0.0000       0.379525        10.3274 
  33   0.0000       0.379526        10.3274 
  34   0.0000       0.400710        10.9039 
  35   0.0000       0.400731        10.9045 
  36   0.0000       0.419076        11.4036 
  37   0.0000       0.438304        11.9268 
  38   0.0000       0.438304        11.9269 
  39   0.0000       0.484812        13.1924 
  40   0.0000       0.490992        13.3606 
  41   0.0000       0.490994        13.3606 
  42   0.0000       0.635758        17.2999 
  43   0.0000       0.654225        17.8024 
  44   0.0000       0.654226        17.8024 
  45   0.0000       0.668701        18.1963 
  46   0.0000       0.668707        18.1964 
  47   0.0000       0.718347        19.5472 
  48   0.0000       0.740246        20.1431 
  49   0.0000       0.744071        20.2472 
  50   0.0000       0.746674        20.3180 
  51   0.0000       0.746676        20.3181 
  52   0.0000       0.784621        21.3506 
  53   0.0000       0.784622        21.3507 
  54   0.0000       0.863201        23.4889 
  55   0.0000       0.863206        23.4890 
  56   0.0000       0.869642        23.6642 
  57   0.0000       0.983528        26.7632 
  58   0.0000       0.985054        26.8047 
  59   0.0000       0.985056        26.8047 
  60   0.0000       1.050295        28.5800 
  61   0.0000       1.050297        28.5800 
  62   0.0000       1.064577        28.9686 
  63   0.0000       1.149056        31.2674 
  64   0.0000       1.149058        31.2674 
  65   0.0000       1.184065        32.2200 
  66   0.0000       1.268634        34.5213 
  67   0.0000       1.278125        34.7796 
  68   0.0000       1.278139        34.7799 
  69   0.0000       1.285023        34.9673 
  70   0.0000       1.316913        35.8350 
  71   0.0000       1.316919        35.8352 
  72   0.0000       1.503942        40.9243 
  73   0.0000       1.503958        40.9248 
  74   0.0000       1.764678        48.0193 
  75   0.0000       2.103134        57.2292 
  76   0.0000       2.156378        58.6780 
  77   0.0000       2.156392        58.6784 
  78   0.0000       2.177453        59.2515 
  79   0.0000       2.211889        60.1886 
  80   0.0000       2.211895        60.1887 
  81   0.0000       2.297067        62.5064 
  82   0.0000       2.336629        63.5829 
  83   0.0000       2.393281        65.1245 
  84   0.0000       2.393289        65.1247 
  85   0.0000       2.505565        68.1799 
  86   0.0000       2.554420        69.5093 
  87   0.0000       2.554446        69.5100 
  88   0.0000       2.765490        75.2528 
  89   0.0000       2.765556        75.2546 
  90   0.0000       2.816715        76.6467 
  91   0.0000       2.937438        79.9318 
  92   0.0000       2.937453        79.9322 
  93   0.0000       3.166532        86.1657 
  94   0.0000       3.214247        87.4641 
  95   0.0000       3.214298        87.4655 
  96   0.0000       3.272618        89.0525 
  97   0.0000       3.351277        91.1929 
  98   0.0000       3.351399        91.1962 
  99   0.0000       3.378216        91.9259 
 100   0.0000       3.411466        92.8307 
 101   0.0000       3.411495        92.8315 
 102   0.0000       3.544283        96.4449 
 103   0.0000       3.544311        96.4456 
 104   0.0000       3.767205       102.5109 
 105   0.0000       3.795127       103.2707 
 106   0.0000       3.795185       103.2722 
 107   0.0000       3.892621       105.9236 
 108   0.0000       3.965122       107.8964 
 109   0.0000       3.965177       107.8980 
 110   0.0000       4.124124       112.2231 
 111   0.0000       4.124161       112.2241 
 112   0.0000       4.273004       116.2743 
 113   0.0000       4.325687       117.7079 
 114   0.0000       5.164971       140.5460 
 115   0.0000       5.491583       149.4336 
 116   0.0000       5.491657       149.4356 
 117   0.0000       6.881550       187.2565 
 118   0.0000       6.910029       188.0315 
 119   0.0000       6.910049       188.0320 
 120   0.0000       6.913317       188.1209 
 121   0.0000       6.915932       188.1921 
 122   0.0000       6.915937       188.1922 
 123   0.0000       6.920106       188.3056 
 124   0.0000       6.943048       188.9300 
 125   0.0000       6.943124       188.9320 
 126   0.0000       7.048366       191.7958 
 127   0.0000       7.090794       192.9503 
 128   0.0000       7.090866       192.9523 
 129   0.0000       7.161133       194.8643 
 130   0.0000       7.161154       194.8649 
 131   0.0000       7.292356       198.4351 
 132   0.0000       7.437373       202.3812 
 133   0.0000       7.437380       202.3814 
 134   0.0000       7.605798       206.9643 
 135   0.0000       7.605799       206.9643 
 136   0.0000       7.646566       208.0736 
 137   0.0000       7.962304       216.6653 
 138   0.0000       8.484408       230.8725 
 139   0.0000       8.519065       231.8155 
 140   0.0000       8.519130       231.8173 
 141   0.0000       8.587391       233.6748 
 142   0.0000       8.587420       233.6756 
 143   0.0000       8.591971       233.7994 
 144   0.0000       8.840156       240.5529 
 145   0.0000       8.863429       241.1862 
 146   0.0000       8.863433       241.1863 
 147   0.0000       9.034364       245.8376 
 148   0.0000       9.034419       245.8390 
 149   0.0000       9.035500       245.8685 
 150   0.0000       9.265451       252.1257 
 151   0.0000       9.355571       254.5780 
 152   0.0000       9.355586       254.5784 
 153   0.0000      22.995443       625.7378 
 154   0.0000      57.157948      1555.3468 
 155   0.0000      57.305968      1559.3747 
 156   0.0000      57.305982      1559.3750 

                    ********************************
                    * MULLIKEN POPULATION ANALYSIS *
                    ********************************

--------------------------------------------
MULLIKEN ATOMIC CHARGES AND SPIN POPULATIONS
--------------------------------------------
   0 C :    0.505288    0.855451
   1 F :   -0.168381    0.048179
   2 F :   -0.168455    0.048185
   3 F :   -0.168453    0.048185
Sum of atomic charges         :    0.0000000
Sum of atomic spin populations:    1.0000000

-----------------------------------------------------
MULLIKEN REDUCED ORBITAL CHARGES AND SPIN POPULATIONS
-----------------------------------------------------
CHARGE
  0 C s       :     3.111646  s :     3.111646
      pz      :     0.995290  p :     2.047125
      px      :     0.525983
      py      :     0.525852
      dz2     :     0.035311  d :     0.297204
      dxz     :     0.049630
      dyz     :     0.049614
      dx2y2   :     0.081314
      dxy     :     0.081335
      f0      :     0.003968  f :     0.038736
      f+1     :     0.003058
      f-1     :     0.003058
      f+2     :     0.004734
      f-2     :     0.004734
      f+3     :     0.005565
      f-3     :     0.013620
  1 F s       :     3.954283  s :     3.954283
      pz      :     1.870591  p :     5.199984
      px      :     1.417663
      py      :     1.911730
      dz2     :     0.000810  d :     0.013318
      dxz     :     0.008288
      dyz     :    -0.000148
      dx2y2   :     0.006109
      dxy     :    -0.001741
      f0      :     0.000080  f :     0.000796
      f+1     :     0.000161
      f-1     :     0.000009
      f+2     :     0.000145
      f-2     :     0.000010
      f+3     :     0.000245
      f-3     :     0.000147
  2 F s       :     3.954312  s :     3.954312
      pz      :     1.870559  p :     5.200020
      px      :     1.788276
      py      :     1.541185
      dz2     :     0.000813  d :     0.013326
      dxz     :     0.001961
      dyz     :     0.006177
      dx2y2   :     0.000224
      dxy     :     0.004151
      f0      :     0.000080  f :     0.000797
      f+1     :     0.000047
      f-1     :     0.000123
      f+2     :     0.000043
      f-2     :     0.000111
      f+3     :     0.000245
      f-3     :     0.000147
  3 F s       :     3.954311  s :     3.954311
      pz      :     1.870559  p :     5.200020
      px      :     1.788276
      py      :     1.541185
      dz2     :     0.000813  d :     0.013326
      dxz     :     0.001961
      dyz     :     0.006177
      dx2y2   :     0.000224
      dxy     :     0.004151
      f0      :     0.000080  f :     0.000797
      f+1     :     0.000047
      f-1     :     0.000123
      f+2     :     0.000043
      f-2     :     0.000111
      f+3     :     0.000245
      f-3     :     0.000147

SPIN
  0 C s       :     0.196740  s :     0.196740
      pz      :     0.623577  p :     0.646722
      px      :     0.011580
      py      :     0.011565
      dz2     :     0.016049  d :     0.012920
      dxz     :    -0.001785
      dyz     :    -0.001782
      dx2y2   :     0.000223
      dxy     :     0.000216
      f0      :    -0.000508  f :    -0.000932
      f+1     :    -0.000560
      f-1     :    -0.000561
      f+2     :    -0.000023
      f-2     :    -0.000024
      f+3     :     0.000649
      f-3     :     0.000096
  1 F s       :     0.002154  s :     0.002154
      pz      :     0.052888  p :     0.043163
      px      :    -0.008456
      py      :    -0.001270
      dz2     :     0.000180  d :     0.002809
      dxz     :     0.002180
      dyz     :     0.000029
      dx2y2   :     0.000419
      dxy     :     0.000001
      f0      :     0.000006  f :     0.000053
      f+1     :     0.000018
      f-1     :    -0.000001
      f+2     :     0.000024
      f-2     :     0.000001
      f+3     :     0.000005
      f-3     :     0.000001
  2 F s       :     0.002151  s :     0.002151
      pz      :     0.052888  p :     0.043177
      px      :    -0.003073
      py      :    -0.006638
      dz2     :     0.000179  d :     0.002803
      dxz     :     0.000567
      dyz     :     0.001643
      dx2y2   :     0.000103
      dxy     :     0.000311
      f0      :     0.000006  f :     0.000054
      f+1     :     0.000003
      f-1     :     0.000013
      f+2     :     0.000007
      f-2     :     0.000018
      f+3     :     0.000005
      f-3     :     0.000001
  3 F s       :     0.002151  s :     0.002151
      pz      :     0.052888  p :     0.043177
      px      :    -0.003073
      py      :    -0.006638
      dz2     :     0.000179  d :     0.002803
      dxz     :     0.000567
      dyz     :     0.001643
      dx2y2   :     0.000103
      dxy     :     0.000311
      f0      :     0.000006  f :     0.000054
      f+1     :     0.000003
      f-1     :     0.000013
      f+2     :     0.000007
      f-2     :     0.000018
      f+3     :     0.000005
      f-3     :     0.000001


                     *******************************
                     * LOEWDIN POPULATION ANALYSIS *
                     *******************************

-------------------------------------------
LOEWDIN ATOMIC CHARGES AND SPIN POPULATIONS
-------------------------------------------
   0 C :   -0.436353    0.612940
   1 F :    0.145465    0.129000
   2 F :    0.145444    0.129030
   3 F :    0.145444    0.129030

----------------------------------------------------
LOEWDIN REDUCED ORBITAL CHARGES AND SPIN POPULATIONS
----------------------------------------------------
CHARGE
  0 C s       :     2.645163  s :     2.645163
      pz      :     0.851424  p :     2.266682
      px      :     0.707642
      py      :     0.707616
      dz2     :     0.161655  d :     1.276349
      dxz     :     0.181038
      dyz     :     0.181035
      dx2y2   :     0.376307
      dxy     :     0.376314
      f0      :     0.019212  f :     0.248159
      f+1     :     0.019923
      f-1     :     0.019923
      f+2     :     0.029778
      f-2     :     0.029778
      f+3     :     0.053439
      f-3     :     0.076107
  1 F s       :     3.565989  s :     3.565989
      pz      :     1.770309  p :     5.093863
      px      :     1.540737
      py      :     1.782818
      dz2     :     0.024412  d :     0.192722
      dxz     :     0.066430
      dyz     :     0.002246
      dx2y2   :     0.046249
      dxy     :     0.053386
      f0      :     0.000224  f :     0.001960
      f+1     :     0.000366
      f-1     :     0.000022
      f+2     :     0.000459
      f-2     :     0.000026
      f+3     :     0.000506
      f-3     :     0.000357
  2 F s       :     3.565991  s :     3.565991
      pz      :     1.770304  p :     5.093880
      px      :     1.722315
      py      :     1.601261
      dz2     :     0.024412  d :     0.192724
      dxz     :     0.018292
      dyz     :     0.050384
      dx2y2   :     0.051603
      dxy     :     0.048033
      f0      :     0.000224  f :     0.001960
      f+1     :     0.000108
      f-1     :     0.000280
      f+2     :     0.000134
      f-2     :     0.000351
      f+3     :     0.000506
      f-3     :     0.000357
  3 F s       :     3.565991  s :     3.565991
      pz      :     1.770304  p :     5.093880
      px      :     1.722315
      py      :     1.601261
      dz2     :     0.024412  d :     0.192724
      dxz     :     0.018292
      dyz     :     0.050384
      dx2y2   :     0.051603
      dxy     :     0.048033
      f0      :     0.000224  f :     0.001960
      f+1     :     0.000108
      f-1     :     0.000280
      f+2     :     0.000134
      f-2     :     0.000351
      f+3     :     0.000506
      f-3     :     0.000357

SPIN
  0 C s       :     0.091984  s :     0.091984
      pz      :     0.466379  p :     0.480499
      px      :     0.007062
      py      :     0.007059
      dz2     :     0.041357  d :     0.032291
      dxz     :    -0.003880
      dyz     :    -0.003877
      dx2y2   :    -0.000654
      dxy     :    -0.000656
      f0      :     0.001651  f :     0.008166
      f+1     :    -0.000405
      f-1     :    -0.000405
      f+2     :    -0.000169
      f-2     :    -0.000169
      f+3     :     0.007668
      f-3     :    -0.000005
  1 F s       :     0.013028  s :     0.013028
      pz      :     0.070070  p :     0.070626
      px      :     0.001169
      py      :    -0.000613
      dz2     :     0.002274  d :     0.044772
      dxz     :     0.040418
      dyz     :    -0.000073
      dx2y2   :     0.002050
      dxy     :     0.000102
      f0      :     0.000136  f :     0.000574
      f+1     :     0.000101
      f-1     :     0.000000
      f+2     :     0.000310
      f-2     :     0.000000
      f+3     :     0.000021
      f-3     :     0.000006
  2 F s       :     0.013028  s :     0.013028
      pz      :     0.070070  p :     0.070657
      px      :    -0.000166
      py      :     0.000753
      dz2     :     0.002274  d :     0.044771
      dxz     :     0.010050
      dyz     :     0.030296
      dx2y2   :     0.000588
      dxy     :     0.001563
      f0      :     0.000136  f :     0.000574
      f+1     :     0.000025
      f-1     :     0.000076
      f+2     :     0.000078
      f-2     :     0.000233
      f+3     :     0.000021
      f-3     :     0.000006
  3 F s       :     0.013028  s :     0.013028
      pz      :     0.070070  p :     0.070657
      px      :    -0.000166
      py      :     0.000753
      dz2     :     0.002274  d :     0.044771
      dxz     :     0.010050
      dyz     :     0.030296
      dx2y2   :     0.000588
      dxy     :     0.001563
      f0      :     0.000136  f :     0.000574
      f+1     :     0.000025
      f-1     :     0.000075
      f+2     :     0.000078
      f-2     :     0.000233
      f+3     :     0.000021
      f-3     :     0.000006


                      *****************************
                      * MAYER POPULATION ANALYSIS *
                      *****************************

  NA   - Mulliken gross atomic population
  ZA   - Total nuclear charge
  QA   - Mulliken gross atomic charge
  VA   - Mayer's total valence
  BVA  - Mayer's bonded valence
  FA   - Mayer's free valence

  ATOM       NA         ZA         QA         VA         BVA        FA
  0 C      5.4947     6.0000     0.5053     3.8436     3.1508     0.6928
  1 F      9.1684     9.0000    -0.1684     1.0829     1.0782     0.0047
  2 F      9.1685     9.0000    -0.1685     1.0828     1.0782     0.0047
  3 F      9.1685     9.0000    -0.1685     1.0828     1.0782     0.0047

  Mayer bond orders larger than 0.100000
B(  0-C ,  1-F ) :   1.0503 B(  0-C ,  2-F ) :   1.0503 B(  0-C ,  3-F ) :   1.0503 


-------
TIMINGS
-------

Total SCF time: 0 days 0 hours 0 min 12 sec 

Total time                  ....      12.705 sec
Sum of individual times     ....      11.868 sec  ( 93.4%)

Fock matrix formation       ....      10.093 sec  ( 79.4%)
  Split-RI-J                ....       1.284 sec  ( 12.7% of F)
  Chain of spheres X        ....       3.412 sec  ( 33.8% of F)
  XC integration            ....       2.135 sec  ( 21.2% of F)
    Basis function eval.    ....       0.136 sec  (  6.4% of XC)
    Density eval.           ....       0.173 sec  (  8.1% of XC)
    XC-Functional eval.     ....       0.073 sec  (  3.4% of XC)
    XC-Potential eval.      ....       0.339 sec  ( 15.9% of XC)
Diagonalization             ....       0.408 sec  (  3.2%)
Density matrix formation    ....       0.016 sec  (  0.1%)
Population analysis         ....       0.119 sec  (  0.9%)
Initial guess               ....       0.132 sec  (  1.0%)
Orbital Transformation      ....       0.000 sec  (  0.0%)
Orbital Orthonormalization  ....       0.000 sec  (  0.0%)
DIIS solution               ....       0.541 sec  (  4.3%)
Grid generation             ....       0.560 sec  (  4.4%)

Maximum memory used throughout the entire SCF-calculation: 63.1 MB


-------------------------------------------------------------------------------
                          DFT DISPERSION CORRECTION                            
                                                                               
                              DFTD3 V3.1  Rev 1                                
                              USING zero damping                               
-------------------------------------------------------------------------------
The omegaB97X-D3 functional is recognized. Fit by Chai et al.
Active option DFTDOPT                   ...         3   

molecular C6(AA) [au] = 165.826817 


            DFT-D V3
 parameters
 s6 scaling factor         :     1.0000 
 rs6 scaling factor        :     1.2810 
 s8 scaling factor         :     1.0000 
 rs8 scaling factor        :     1.0940 
 Damping factor alpha6     :    14.0000 
 Damping factor alpha8     :    16.0000 
 ad hoc parameters k1-k3   :    16.0000     1.3333    -4.0000 

 Edisp/kcal,au: -0.066351191167  -0.000105737342 
 E6   /kcal   :  -0.008560143 
 E8   /kcal   :  -0.057791048 
 % E8         :  87.098734866 

-------------------------   ----------------
Dispersion correction           -0.000105737
-------------------------   ----------------


-------------------------   --------------------
FINAL SINGLE POINT ENERGY      -337.619459277314
-------------------------   --------------------



           ************************************************************
           *        Program running with 18 parallel MPI-processes    *
           *              working on a common directory               *
           ************************************************************
------------------------------------------------------------------------------
                         ORCA SCF GRADIENT CALCULATION
------------------------------------------------------------------------------

 ... reading COSX grid (gridx3)
Gradient of the Kohn-Sham DFT energy:
Kohn-Sham wavefunction type      ... UKS
Hartree-Fock exchange scaling    ...    0.196
Number of operators              ...    2
Number of atoms                  ...    4
Basis set dimensions             ...  157
Integral neglect threshold       ... 2.5e-11
Integral primitive cutoff        ... 2.5e-12
SHARK Integral package           ... ON

Nuc. rep. gradient       (SHARK) ... done (  0.0 sec)
HCore & Overlap gradient (SHARK) ... done (  0.0 sec)
RI-J gradient            (SHARK) ... done (  0.2 sec)
COSX-gradient                    ... done (  0.4 sec)
Exchange-correlation gradient    ... done
Dispersion correction            ... done

------------------
CARTESIAN GRADIENT
------------------

WARNING: THERE ARE 3 CONSTRAINED CARTESIAN COORDINATES
   1   C   :    0.000016352   -0.000000055   -0.070632826
   2   F   :    0.010252270    0.000000048    0.023733115
   3   F   :   -0.004977602    0.009701248    0.023854088
   4   F   :   -0.004977320   -0.009700909    0.023853711

Difference to translation invariance:
           :    0.0003136990    0.0000003320    0.0008080880

Difference to rotation invariance:
           :    0.0000009670    0.0001660986    0.0000003009

Norm of the cartesian gradient     ...    0.0838639097
RMS gradient                       ...    0.0242094254
MAX gradient                       ...    0.0706328264

-------
TIMINGS
-------

Total SCF gradient time            ...        1.184 sec

One electron gradient       ....       0.013 sec  (  1.1%)
RI-J Coulomb gradient       ....       0.153 sec  ( 12.9%)
COSX gradient               ....       0.440 sec  ( 37.1%)
XC gradient                 ....       0.165 sec  ( 13.9%)

Maximum memory used throughout the entire SCFGRAD-calculation: 37.2 MB
------------------------------------------------------------------------------
                         ORCA GEOMETRY RELAXATION STEP
------------------------------------------------------------------------------

Reading the OPT-File                    .... done
Getting information on internals        .... done
Copying old internal coords+grads       .... done
Making the new internal coordinates     .... (new redundants).... done
Validating the new internal coordinates .... (new redundants).... done
Calculating the B-matrix                .... done
Calculating the G,G- and P matrices     .... done
Transforming gradient to internals      .... done
Projecting the internal gradient        .... done
Number of atoms                         ....   4
Number of internal coordinates          ....   7
Current Energy                          ....  -337.619459277 Eh
Current gradient norm                   ....     0.083863910 Eh/bohr
Maximum allowed component of the step   ....  0.300
Current trust radius                    ....  0.300
Evaluating the initial hessian          ....  (Almloef) done
Projecting the Hessian                  .... done
Forming the augmented Hessian           .... done
Diagonalizing the augmented Hessian     .... done
Last element of RFO vector              ....  0.999869660
Lowest eigenvalues of augmented Hessian:
 -0.000178620  0.684895726  0.684895726  0.685074346 1000.000000000
Length of the computed step             ....  0.016147154
The final length of the internal step   ....  0.016147154
Converting the step to cartesian space:
 Initial RMS(Int)=    0.0061030505
Transforming coordinates:
 Iter   0:  RMS(Cart)=    0.0046048601 RMS(Int)=    0.0061030499
 Iter   1:  RMS(Cart)=    0.0000000037 RMS(Int)=    0.0000000068
Imposing constraints:
 Iter   0:  RMS(Cart)=    0.0000000007 RMS(Int)=    0.0000000043
CONVERGED
done
Storing new coordinates                 .... done

                                .--------------------.
          ----------------------|Geometry convergence|-------------------------
          Item                value                   Tolerance       Converged
          ---------------------------------------------------------------------
          RMS gradient        0.0041810433            0.0001000000      NO
          MAX gradient        0.0066229454            0.0003000000      NO
          RMS step            0.0061030505            0.0020000000      NO
          MAX step            0.0096674842            0.0040000000      NO
          ........................................................
          Max(Bonds)      0.0051      Max(Angles)    0.00
          Max(Dihed)        0.00      Max(Improp)    0.00
          ---------------------------------------------------------------------

The optimization has not yet converged - more geometry cycles are needed


    ---------------------------------------------------------------------------
                         Redundant Internal Coordinates
                            (Angstroem and degrees)

        Definition                    Value    dE/dq     Step     New-Value
    ----------------------------------------------------------------------------
     1. B(F   1,C   0)                1.3150  0.005886 -0.0045    1.3105   
     2. B(F   2,C   0)                1.3150  0.006623 -0.0051    1.3099   
     3. B(F   3,C   0)                1.3150  0.006623 -0.0051    1.3099   
     4. A(F   2,C   0,F   3)          117.00  0.024791   -0.00    117.00 C 
     5. A(F   1,C   0,F   2)          117.00  0.006626   -0.00    117.00 C 
     6. A(F   1,C   0,F   3)          117.00  0.006626   -0.00    117.00 C 
     7. I(F   1,F   3,F   2,C   0)     29.67 -0.058329    0.00     29.67   
    ----------------------------------------------------------------------------

         *************************************************************
         *                GEOMETRY OPTIMIZATION CYCLE   2            *
         *************************************************************
---------------------------------
CARTESIAN COORDINATES (ANGSTROEM)
---------------------------------
  C     -0.000147    0.000000   -0.000647
  F      1.290061    0.000000   -0.230107
  F     -0.644957    1.116860   -0.230081
  F     -0.644957   -1.116860   -0.230081

----------------------------
CARTESIAN COORDINATES (A.U.)
----------------------------
  NO LB      ZA    FRAG     MASS         X           Y           Z
   0 C     6.0000    0    12.011   -0.000277    0.000000   -0.001223
   1 F     9.0000    0    18.998    2.437862    0.000000   -0.434839
   2 F     9.0000    0    18.998   -1.218793    2.110559   -0.434790
   3 F     9.0000    0    18.998   -1.218793   -2.110560   -0.434790

--------------------------------
INTERNAL COORDINATES (ANGSTROEM)
--------------------------------
 C      0   0   0     0.000000000000     0.00000000     0.00000000
 F      1   0   0     1.310453454458     0.00000000     0.00000000
 F      1   2   0     1.309884187687   116.99999998     0.00000000
 F      1   2   3     1.309884397902   116.99999998   146.25003613

---------------------------
INTERNAL COORDINATES (A.U.)
---------------------------
 C      0   0   0     0.000000000000     0.00000000     0.00000000
 F      1   0   0     2.476398140177     0.00000000     0.00000000
 F      1   2   0     2.475322381882   116.99999998     0.00000000
 F      1   2   3     2.475322779131   116.99999998   146.25003613



           ************************************************************
           *        Program running with 18 parallel MPI-processes    *
           *              working on a common directory               *
           ************************************************************
------------------------------------------------------------------------------
                   ___                                                        
                  /   \      - P O W E R E D   B Y -                         
                 /     \                                                     
                 |  |  |   _    _      __       _____    __    __             
                 |  |  |  | |  | |    /  \     |  _  \  |  |  /  |          
                  \  \/   | |  | |   /    \    | | | |  |  | /  /          
                 / \  \   | |__| |  /  /\  \   | |_| |  |  |/  /          
                |  |  |   |  __  | /  /__\  \  |    /   |      \           
                |  |  |   | |  | | |   __   |  |    \   |  |\   \          
                \     /   | |  | | |  |  |  |  | |\  \  |  | \   \       
                 \___/    |_|  |_| |__|  |__|  |_| \__\ |__|  \__/        
                                                                              
                      - O R C A' S   B I G   F R I E N D -                    
                                      &                                       
                       - I N T E G R A L  F E E D E R -                       
                                                                              
 v1 FN, 2020, v2 2021                                                         
------------------------------------------------------------------------------


Reading SHARK input file /beegfs/scratch/ispackman/PFAS_EPR_calcs/benchmark/JChemEd_CF3_radical/CF3_radical_117.0_degrees_IN-PROGRESS/CF3_radical_117.0_degrees.SHARKINP.tmp ... ok
----------------------
SHARK INTEGRAL PACKAGE
----------------------

Number of atoms                             ...      4
Number of basis functions                   ...    157
Number of shells                            ...     55
Maximum angular momentum                    ...      3
Integral batch strategy                     ... SHARK/LIBINT Hybrid
RI-J (if used) integral strategy            ... SPLIT-RIJ (Revised 2003 algorithm where possible)
Printlevel                                  ...      1
Contraction scheme used                     ... SEGMENTED contraction
Coulomb Range Separation                    ... NOT USED
Exchange Range Separation                   ... Long Range
   Mu parameter                             ...  0.250000
   Scaling (regular/separated)              ...  0.195728  0.804272
Finite Nucleus Model                        ... NOT USED
Auxiliary Coulomb fitting basis             ... AVAILABLE
   # of basis functions in Aux-J            ...    196
   # of shells in Aux-J                     ...     60
   Maximum angular momentum in Aux-J        ...      4
Auxiliary J/K fitting basis                 ... NOT available
Auxiliary Correlation fitting basis         ... NOT available
Auxiliary 'external' fitting basis          ... NOT available
Integral threshold                          ...     2.500000e-11
Primitive cut-off                           ...     2.500000e-12
Primitive pair pre-selection threshold      ...     2.500000e-12

Calculating pre-screening integrals         ... done (  0.0 sec) Dimension = 55
Organizing shell pair data                  ... done (  0.0 sec)
Shell pair information
Total number of shell pairs                 ...      1540
Shell pairs after pre-screening             ...      1492
Total number of primitive shell pairs       ...      4274
Primitive shell pairs kept                  ...      3461
          la=0 lb=0:    276 shell pairs
          la=1 lb=0:    354 shell pairs
          la=1 lb=1:    120 shell pairs
          la=2 lb=0:    276 shell pairs
          la=2 lb=1:    180 shell pairs
          la=2 lb=2:     78 shell pairs
          la=3 lb=0:     90 shell pairs
          la=3 lb=1:     60 shell pairs
          la=3 lb=2:     48 shell pairs
          la=3 lb=3:     10 shell pairs

Calculating one electron integrals          ... done (  0.0 sec)
Calculating RI/J V-Matrix + Cholesky decomp.... done (  0.0 sec)
Calculating Nuclear repulsion               ... done (  0.0 sec) ENN=    122.995878815261 Eh

SHARK setup successfully completed in   0.3 seconds

Maximum memory used throughout the entire GTOINT-calculation: 15.2 MB


           ************************************************************
           *        Program running with 18 parallel MPI-processes    *
           *              working on a common directory               *
           ************************************************************

Diagonalization of the overlap matrix:
Smallest eigenvalue                        ... 2.740e-04
Time for diagonalization                   ...    0.008 sec
Threshold for overlap eigenvalues          ... 1.000e-08
Number of eigenvalues below threshold      ... 0
Time for construction of square roots      ...    0.037 sec
Total time needed                          ...    0.046 sec

-------------------
DFT GRID GENERATION
-------------------

General Integration Accuracy     IntAcc      ... 4.388
Radial Grid Type                 RadialGrid  ... OptM3 with GC (2021)
Angular Grid (max. ang.)         AngularGrid ... 4 (Lebedev-302)
Angular grid pruning method      GridPruning ... 4 (adaptive)
Weight generation scheme         WeightScheme... Becke
Basis function cutoff            BFCut       ... 1.0000e-11
Integration weight cutoff        WCut        ... 1.0000e-14
Angular grids for H and He will be reduced by one unit
Partially contracted basis set               ... off
Rotationally invariant grid construction     ... off

Total number of grid points                  ...    25766
Total number of batches                      ...      405
Average number of points per batch           ...       63
Average number of grid points per atom       ...     6442
Time for grid setup =    0.159 sec

--------------------
COSX GRID GENERATION
--------------------

GRIDX 1
-------
General Integration Accuracy     IntAcc      ... 3.816
Radial Grid Type                 RadialGrid  ... OptM3 with GC (2021)
Angular Grid (max. ang.)         AngularGrid ... 1 (Lebedev-50)
Angular grid pruning method      GridPruning ... 4 (adaptive)
Weight generation scheme         WeightScheme... Becke
Basis function cutoff            BFCut       ... 1.0000e-11
Integration weight cutoff        WCut        ... 1.0000e-14
Angular grids for H and He will be reduced by one unit
Partially contracted basis set               ... on
Rotationally invariant grid construction     ... off

Total number of grid points                  ...     3270
Total number of batches                      ...       52
Average number of points per batch           ...       62
Average number of grid points per atom       ...      818
UseSFitting                                  ... on

GRIDX 2
-------
General Integration Accuracy     IntAcc      ... 4.020
Radial Grid Type                 RadialGrid  ... OptM3 with GC (2021)
Angular Grid (max. ang.)         AngularGrid ... 2 (Lebedev-110)
Angular grid pruning method      GridPruning ... 4 (adaptive)
Weight generation scheme         WeightScheme... Becke
Basis function cutoff            BFCut       ... 1.0000e-11
Integration weight cutoff        WCut        ... 1.0000e-14
Angular grids for H and He will be reduced by one unit
Partially contracted basis set               ... on
Rotationally invariant grid construction     ... off

Total number of grid points                  ...     9147
Total number of batches                      ...      145
Average number of points per batch           ...       63
Average number of grid points per atom       ...     2287
UseSFitting                                  ... on

GRIDX 3
-------
General Integration Accuracy     IntAcc      ... 4.338
Radial Grid Type                 RadialGrid  ... OptM3 with GC (2021)
Angular Grid (max. ang.)         AngularGrid ... 3 (Lebedev-194)
Angular grid pruning method      GridPruning ... 4 (adaptive)
Weight generation scheme         WeightScheme... Becke
Basis function cutoff            BFCut       ... 1.0000e-11
Integration weight cutoff        WCut        ... 1.0000e-14
Angular grids for H and He will be reduced by one unit
Partially contracted basis set               ... on
Rotationally invariant grid construction     ... off

Total number of grid points                  ...    19667
[...]
  VA   - Mayer's total valence
  BVA  - Mayer's bonded valence
  FA   - Mayer's free valence

  ATOM       NA         ZA         QA         VA         BVA        FA
  0 C      5.4901     6.0000     0.5099     3.8421     3.1497     0.6924
  1 F      9.1701     9.0000    -0.1701     1.0808     1.0761     0.0046
  2 F      9.1699     9.0000    -0.1699     1.0812     1.0765     0.0047
  3 F      9.1699     9.0000    -0.1699     1.0812     1.0765     0.0047

  Mayer bond orders larger than 0.100000
B(  0-C ,  1-F ) :   1.0496 B(  0-C ,  2-F ) :   1.0501 B(  0-C ,  3-F ) :   1.0501 


-------
TIMINGS
-------

Total SCF time: 0 days 0 hours 0 min 5 sec 

Total time                  ....       5.095 sec
Sum of individual times     ....       4.453 sec  ( 87.4%)

Fock matrix formation       ....       3.505 sec  ( 68.8%)
  Split-RI-J                ....       0.536 sec  ( 15.3% of F)
  Chain of spheres X        ....       1.541 sec  ( 44.0% of F)
  XC integration            ....       0.637 sec  ( 18.2% of F)
    Basis function eval.    ....       0.046 sec  (  7.2% of XC)
    Density eval.           ....       0.057 sec  (  8.9% of XC)
    XC-Functional eval.     ....       0.025 sec  (  3.9% of XC)
    XC-Potential eval.      ....       0.073 sec  ( 11.4% of XC)
Diagonalization             ....       0.126 sec  (  2.5%)
Density matrix formation    ....       0.011 sec  (  0.2%)
Population analysis         ....       0.146 sec  (  2.9%)
Initial guess               ....       0.019 sec  (  0.4%)
Orbital Transformation      ....       0.000 sec  (  0.0%)
Orbital Orthonormalization  ....       0.009 sec  (  0.2%)
DIIS solution               ....       0.088 sec  (  1.7%)
Grid generation             ....       0.558 sec  ( 11.0%)

Maximum memory used throughout the entire SCF-calculation: 63.1 MB


-------------------------------------------------------------------------------
                          DFT DISPERSION CORRECTION                            
                                                                               
                              DFTD3 V3.1  Rev 1                                
                              USING zero damping                               
-------------------------------------------------------------------------------
The omegaB97X-D3 functional is recognized. Fit by Chai et al.
Active option DFTDOPT                   ...         3   

molecular C6(AA) [au] = 165.815553 


            DFT-D V3
 parameters
 s6 scaling factor         :     1.0000 
 rs6 scaling factor        :     1.2810 
 s8 scaling factor         :     1.0000 
 rs8 scaling factor        :     1.0940 
 Damping factor alpha6     :    14.0000 
 Damping factor alpha8     :    16.0000 
 ad hoc parameters k1-k3   :    16.0000     1.3333    -4.0000 

 Edisp/kcal,au: -0.064003533644  -0.000101996112 
 E6   /kcal   :  -0.008245621 
 E8   /kcal   :  -0.055757912 
 % E8         :  87.116928240 

-------------------------   ----------------
Dispersion correction           -0.000101996
-------------------------   ----------------


-------------------------   --------------------
FINAL SINGLE POINT ENERGY      -337.619566693575
-------------------------   --------------------

                                *** OPTIMIZATION RUN DONE ***

                            ***************************************
                            *     ORCA property calculations      *
                            ***************************************

                                    ---------------------
                                    Active property flags
                                    ---------------------
   (+) Dipole Moment


------------------------------------------------------------------------------
                       ORCA ELECTRIC PROPERTIES CALCULATION
------------------------------------------------------------------------------

Dipole Moment Calculation                       ... on
Quadrupole Moment Calculation                   ... off
Polarizability Calculation                      ... off
GBWName                                         ... /beegfs/scratch/ispackman/PFAS_EPR_calcs/benchmark/JChemEd_CF3_radical/CF3_radical_117.0_degrees_IN-PROGRESS/CF3_radical_117.0_degrees.gbw
Electron density                                ... /beegfs/scratch/ispackman/PFAS_EPR_calcs/benchmark/JChemEd_CF3_radical/CF3_radical_117.0_degrees_IN-PROGRESS/CF3_radical_117.0_degrees.scfp
The origin for moment calculation is the CENTER OF MASS  = ( 0.000047, -0.000000 -0.359306)

-------------
DIPOLE MOMENT
-------------
                                X             Y             Z
Electronic contribution:     -0.00164       0.00000      -0.18239
Nuclear contribution   :     -0.00016       0.00000       0.11090
                        -----------------------------------------
Total Dipole Moment    :     -0.00180       0.00000      -0.07149
                        -----------------------------------------
Magnitude (a.u.)       :      0.07151
Magnitude (Debye)      :      0.18176



--------------------
Rotational spectrum 
--------------------
 
Rotational constants in cm-1:     0.352540     0.352200     0.178126 
Rotational constants in MHz : 10568.869564 10558.678931  5340.069875 

 Dipole components along the rotational axes: 
x,y,z [a.u.] :     0.001795     0.000001    -0.071486 
x,y,z [Debye]:     0.004562     0.000002    -0.181702 

 


           ************************************************************
           *        Program running with 18 parallel MPI-processes    *
           *              working on a common directory               *
           ************************************************************

-------------------------------------------------------------------------------
                               ORCA SCF HESSIAN
-------------------------------------------------------------------------------

                   --------- SHARK INITIALIZATION DONE ---------

Hessian of the Kohn-Sham DFT energy:
Kohn-Sham wavefunction type                      ... UKS
Hartree-Fock exchange scaling                    ...    0.196
Number of operators                              ...    2
Number of atoms                                  ...    4
Basis set dimensions                             ...  157
Integral neglect threshold                       ... 2.5e-11
Integral primitive cutoff                        ... 2.5e-12

Setting up DFT Hessian calculations              ... 

HESS GRID
---------

General Integration Accuracy     IntAcc      ... 4.629
Radial Grid Type                 RadialGrid  ... OptM3 with GC (2021)
Angular Grid (max. ang.)         AngularGrid ... 5 (Lebedev-434)
Angular grid pruning method      GridPruning ... 4 (adaptive)
Weight generation scheme         WeightScheme... Becke
Basis function cutoff            BFCut       ... 1.0000e-11
Integration weight cutoff        WCut        ... 1.0000e-14
Angular grids for H and He will be reduced by one unit
Partially contracted basis set               ... off
Rotationally invariant grid construction     ... off

Total number of grid points                  ...    39958
Total number of batches                      ...      627
Average number of points per batch           ...       63
Average number of grid points per atom       ...     9990

Building densities                               ... done   (      0.0 sec)
Calculating rho(r) on the grid                   ... done   (      0.1 sec)
Building xc-kernel on the grid                   ... done   (      0.1 sec)
                                                     done   (      0.6 sec)

Nuclear repulsion Hessian  (SHARK)               ... done   (      0.0 sec)

----------------------------------------------
Forming right-hand sides of CP-SCF equations     ...
----------------------------------------------
One electron integral derivatives  (SHARK)       ... done   (      0.0 sec)
Transforming the overlap derivative matrices     ... done   (      0.0 sec)
Making the Q(x) pseudodensities                  ... done   (      0.0 sec)
Adding the E*S(x)*S(y) terms to the Hessian      ... done   (      0.0 sec)
Calculating energy weighted overlap derivatives  ... done   (      0.0 sec)
Two electron integral derivatives (SHARK-RI)     ... done   (      2.4 sec)
Exchange-correlation integral derivatives        ... done   (      2.2 sec)
tr(F(y)Q(x)) contribution to the Hessian         ... done   (      0.0 sec)
Response fock operator R(S(x)) (SHARK-RIJCOSX)   ... done   (      0.9 sec)
XC Response fock operator R(S(x))                ... done   (      0.4 sec)
tr(F(y)S(x)) contribution to the Hessian         ... done   (      0.0 sec)
Transforming and finalizing RHSs                 ... done   (      0.0 sec)

----------------------------------------------
Solving the CP-SCF equations (RIJCOSX)           ...
----------------------------------------------
     CP-SCF ITERATION   0:   1.6595e-01 (   0.5 sec   0/ 12 done)
     CP-SCF ITERATION   1:   4.7428e-02 (   0.5 sec   0/ 12 done)
     CP-SCF ITERATION   2:   2.1552e-02 (   0.5 sec   0/ 12 done)
     CP-SCF ITERATION   3:   7.3763e-03 (   0.5 sec   0/ 12 done)
     CP-SCF ITERATION   4:   1.6034e-03 (   0.5 sec   0/ 12 done)
     CP-SCF ITERATION   5:   6.4992e-04 (   0.4 sec   1/ 12 done)
     CP-SCF ITERATION   6:   2.0006e-04 (   0.4 sec   5/ 12 done)
     CP-SCF ITERATION   7:   4.6791e-05 (   0.4 sec  12/ 12 done)
                    *** THE CP-SCF HAS CONVERGED ***

                                                 ... done   (      3.8 sec)
Forming perturbed density Hessian contributions  ... done   (      0.0 sec)
2nd integral derivative contribs (SHARK-RI)      ... done   (      6.7 sec)
Exchange-correlation Hessian                     ... done   (      0.9 sec)
Dispersion correction in the Hessian             ... done   (      0.1 sec)
Dipole derivatives                               ... (center of mass:  0.000047, -0.000000 -0.359306)done   (      0.1 sec)

Total SCF Hessian time: 0 days 0 hours 0 min 18 sec 

Writing the Hessian file to the disk             ... done


Maximum memory used throughout the entire SCFHESS-calculation: 144.5 MB

-----------------------
VIBRATIONAL FREQUENCIES
-----------------------

Scaling factor for frequencies =  1.000000000  (already applied!)

   0:         0.00 cm**-1
   1:         0.00 cm**-1
   2:         0.00 cm**-1
   3:         0.00 cm**-1
   4:         0.00 cm**-1
   5:         0.00 cm**-1
   6:       477.10 cm**-1
   7:       477.23 cm**-1
   8:       568.76 cm**-1
   9:       985.40 cm**-1
  10:      1354.78 cm**-1
  11:      1358.08 cm**-1


------------
NORMAL MODES
------------

These modes are the Cartesian displacements weighted by the diagonal matrix
M(i,i)=1/sqrt(m[i]) where m[i] is the mass of the displaced atom
Thus, these vectors are normalized but *not* orthogonal

                  0          1          2          3          4          5    
      0       0.000000   0.000000   0.000000   0.000000   0.000000   0.000000
      1       0.000000   0.000000   0.000000   0.000000   0.000000   0.000000
      2       0.000000   0.000000   0.000000   0.000000   0.000000   0.000000
      3       0.000000   0.000000   0.000000   0.000000   0.000000   0.000000
      4       0.000000   0.000000   0.000000   0.000000   0.000000   0.000000
      5       0.000000   0.000000   0.000000   0.000000   0.000000   0.000000
      6       0.000000   0.000000   0.000000   0.000000   0.000000   0.000000
      7       0.000000   0.000000   0.000000   0.000000   0.000000   0.000000
      8       0.000000   0.000000   0.000000   0.000000   0.000000   0.000000
      9       0.000000   0.000000   0.000000   0.000000   0.000000   0.000000
     10       0.000000   0.000000   0.000000   0.000000   0.000000   0.000000
     11       0.000000   0.000000   0.000000   0.000000   0.000000   0.000000
                  6          7          8          9         10         11    
      0      -0.000169  -0.343241   0.001593   0.004284   0.904169   0.000114
      1       0.343376  -0.000169  -0.000000  -0.000001   0.000114  -0.904145
      2       0.000003   0.004744   0.814379  -0.608841   0.002309   0.000001
      3      -0.000230  -0.466789  -0.285434  -0.440990  -0.338002  -0.000042
      4      -0.609301   0.000300   0.000000   0.000000  -0.000005   0.041411
      5      -0.000013  -0.026716  -0.171410   0.128574   0.067291   0.000008
      6      -0.465092   0.342127   0.142214   0.219141  -0.116801  -0.129144
      7       0.196333   0.463308  -0.251493  -0.380386   0.130435   0.265123
      8       0.022318   0.011847  -0.171730   0.128175  -0.034368  -0.058723
      9       0.465429   0.341668   0.142213   0.219141  -0.116834   0.129114
     10       0.195877  -0.463502   0.251493   0.380386  -0.130501   0.265089
     11      -0.022306   0.011869  -0.171730   0.128175  -0.034383   0.058714


-----------
IR SPECTRUM
-----------

 Mode   freq       eps      Int      T**2         TX        TY        TZ
       cm**-1   L/(mol*cm) km/mol    a.u.
----------------------------------------------------------------------------
  6:    477.10   0.000438    2.21  0.000287  (-0.000008  0.016931  0.000000)
  7:    477.23   0.000438    2.22  0.000287  (-0.016929 -0.000008  0.000199)
  8:    568.76   0.001997   10.09  0.001095  ( 0.000080 -0.000000  0.033097)
  9:    985.40   0.002181   11.02  0.000691  ( 0.000600 -0.000000 -0.026276)
 10:   1354.78   0.072714  367.47  0.016749  ( 0.129418  0.000016  0.000158)
 11:   1358.08   0.072783  367.82  0.016724  ( 0.000016 -0.129323  0.000000)

* The epsilon (eps) is given for a Dirac delta lineshape.
** The dipole moment derivative (T) already includes vibrational overlap.

The first frequency considered to be a vibration is 6
The total number of vibrations considered is 6


--------------------------
THERMOCHEMISTRY AT 298.15K
--------------------------

Temperature         ... 298.15 K
Pressure            ... 1.00 atm
Total Mass          ... 69.00 AMU

Throughout the following assumptions are being made:
  (1) The electronic state is orbitally nondegenerate
      but the spin degeneracy is treated
  (2) There are no thermally accessible electronically excited states
  (3) Hindered rotations indicated by low frequency modes are not
      treated as such but are treated as vibrations and this may
      cause some error
  (4) All equations used are the standard statistical mechanics
      equations for an ideal gas
  (5) All vibrations are strictly harmonic

freq.     477.10  E(vib)   ...       0.15 
freq.     477.23  E(vib)   ...       0.15 
freq.     568.76  E(vib)   ...       0.11 
freq.     985.40  E(vib)   ...       0.02 
freq.    1354.78  E(vib)   ...       0.01 
freq.    1358.08  E(vib)   ...       0.01 

------------
INNER ENERGY
------------

The inner energy is: U= E(el) + E(ZPE) + E(vib) + E(rot) + E(trans)
    E(el)   - is the total energy from the electronic structure calculation
              = E(kin-el) + E(nuc-el) + E(el-el) + E(nuc-nuc)
    E(ZPE)  - the the zero temperature vibrational energy from the frequency calculation
    E(vib)  - the the finite temperature correction to E(ZPE) due to population
              of excited vibrational states
    E(rot)  - is the rotational thermal energy
    E(trans)- is the translational thermal energy

Summary of contributions to the inner energy U:
Electronic energy                ...   -337.61956669 Eh
Zero point energy                ...      0.01189511 Eh       7.46 kcal/mol
Thermal vibrational correction   ...      0.00071791 Eh       0.45 kcal/mol
Thermal rotational correction    ...      0.00141627 Eh       0.89 kcal/mol
Thermal translational correction ...      0.00141627 Eh       0.89 kcal/mol
-----------------------------------------------------------------------
Total thermal energy                   -337.60412112 Eh


Summary of corrections to the electronic energy:
(perhaps to be used in another calculation)
Total thermal correction                  0.00355045 Eh       2.23 kcal/mol
Non-thermal (ZPE) correction              0.01189511 Eh       7.46 kcal/mol
-----------------------------------------------------------------------
Total correction                          0.01544557 Eh       9.69 kcal/mol


--------
ENTHALPY
--------

The enthalpy is H = U + kB*T
                kB is Boltzmann's constant
Total free energy                 ...   -337.60412112 Eh 
Thermal Enthalpy correction       ...      0.00094421 Eh       0.59 kcal/mol
-----------------------------------------------------------------------
Total Enthalpy                    ...   -337.60317692 Eh


Note: Rotational entropy computed according to Herzberg 
Infrared and Raman Spectra, Chapter V,1, Van Nostrand Reinhold, 1945 
Point Group:  Cs, Symmetry Number:   1  
Rotational constants in cm-1:     0.352540     0.352200     0.178126 

Vibrational entropy computed according to the QRRHO of S. Grimme
Chem.Eur.J. 2012 18 9955


-------
ENTROPY
-------

The entropy contributions are T*S = T*(S(el)+S(vib)+S(rot)+S(trans))
     S(el)   - electronic entropy
     S(vib)  - vibrational entropy
     S(rot)  - rotational entropy
     S(trans)- translational entropy
The entropies will be listed as multiplied by the temperature to get
units of energy

Electronic entropy                ...      0.00065446 Eh      0.41 kcal/mol
Vibrational entropy               ...      0.00099183 Eh      0.62 kcal/mol
Rotational entropy                ...      0.01131014 Eh      7.10 kcal/mol
Translational entropy             ...      0.01834582 Eh     11.51 kcal/mol
-----------------------------------------------------------------------
Final entropy term                ...      0.03130225 Eh     19.64 kcal/mol

In case the symmetry of your molecule has not been determined correctly
or in case you have a reason to use a different symmetry number we print 
out the resulting rotational entropy values for sn=1,12 :
 --------------------------------------------------------
|  sn= 1 | S(rot)=       0.01131014 Eh      7.10 kcal/mol|
|  sn= 2 | S(rot)=       0.01065569 Eh      6.69 kcal/mol|
|  sn= 3 | S(rot)=       0.01027285 Eh      6.45 kcal/mol|
|  sn= 4 | S(rot)=       0.01000123 Eh      6.28 kcal/mol|
|  sn= 5 | S(rot)=       0.00979054 Eh      6.14 kcal/mol|
|  sn= 6 | S(rot)=       0.00961840 Eh      6.04 kcal/mol|
|  sn= 7 | S(rot)=       0.00947285 Eh      5.94 kcal/mol|
|  sn= 8 | S(rot)=       0.00934677 Eh      5.87 kcal/mol|
|  sn= 9 | S(rot)=       0.00923557 Eh      5.80 kcal/mol|
|  sn=10 | S(rot)=       0.00913609 Eh      5.73 kcal/mol|
|  sn=11 | S(rot)=       0.00904610 Eh      5.68 kcal/mol|
|  sn=12 | S(rot)=       0.00896394 Eh      5.62 kcal/mol|
 --------------------------------------------------------


-------------------
GIBBS FREE ENERGY
-------------------

The Gibbs free energy is G = H - T*S

Total enthalpy                    ...   -337.60317692 Eh 
Total entropy correction          ...     -0.03130225 Eh    -19.64 kcal/mol
-----------------------------------------------------------------------
Final Gibbs free energy         ...   -337.63447917 Eh

For completeness - the Gibbs free energy minus the electronic energy
G-E(el)                           ...     -0.01491247 Eh     -9.36 kcal/mol


Timings for individual modules:

Sum of individual times         ...       87.488 sec (=   1.458 min)
GTO integral calculation        ...       11.212 sec (=   0.187 min)  12.8 %
SCF iterations                  ...       43.653 sec (=   0.728 min)  49.9 %
SCF Gradient evaluation         ...       10.942 sec (=   0.182 min)  12.5 %
Geometry relaxation             ...        0.170 sec (=   0.003 min)   0.2 %
Analytical frequency calculation...       21.510 sec (=   0.359 min)  24.6 %
                             ****ORCA TERMINATED NORMALLY****
TOTAL RUN TIME: 0 days 0 hours 1 minutes 39 seconds 71 msec

slurmID:    32260074
totalRuntime[s]:    99.118933336
