
                                 *****************
                                 * O   R   C   A *
                                 *****************

                                            #,                                       
                                            ###                                      
                                            ####                                     
                                            #####                                    
                                            ######                                   
                                           ########,                                 
                                     ,,################,,,,,                         
                               ,,#################################,,                 
                          ,,##########################################,,             
                       ,#########################################, ''#####,          
                    ,#############################################,,   '####,        
                  ,##################################################,,,,####,       
                ,###########''''           ''''###############################       
              ,#####''   ,,,,##########,,,,          '''####'''          '####       
            ,##' ,,,,###########################,,,                        '##       
           ' ,,###''''                  '''############,,,                           
         ,,##''                                '''############,,,,        ,,,,,,###''
      ,#''                                            '''#######################'''  
     '                                                          ''''####''''         
             ,#######,   #######,   ,#######,      ##                                
            ,#'     '#,  ##    ##  ,#'     '#,    #''#        ######   ,####,        
            ##       ##  ##   ,#'  ##            #'  '#       #        #'  '#        
            ##       ##  #######   ##           ,######,      #####,   #    #        
            '#,     ,#'  ##    ##  '#,     ,#' ,#      #,         ##   #,  ,#        
             '#######'   ##     ##  '#######'  #'      '#     #####' # '####'        



                  #######################################################
                  #                        -***-                        #
                  #          Department of theory and spectroscopy      #
                  #    Directorship and core code : Frank Neese         #
                  #        Max Planck Institute fuer Kohlenforschung    #
                  #                Kaiser Wilhelm Platz 1               #
                  #                 D-45470 Muelheim/Ruhr               #
                  #                      Germany                        #
                  #                                                     #
                  #                  All rights reserved                #
                  #                        -***-                        #
                  #######################################################


                         Program Version 5.0.4 -  RELEASE  -


 With contributions from (in alphabetic order):
   Daniel Aravena         : Magnetic Suceptibility
   Michael Atanasov       : Ab Initio Ligand Field Theory (pilot matlab implementation)
   Alexander A. Auer      : GIAO ZORA, VPT2 properties, NMR spectrum
   Ute Becker             : Parallelization
   Giovanni Bistoni       : ED, misc. LED, open-shell LED, HFLD
   Martin Brehm           : Molecular dynamics
   Dmytro Bykov           : SCF Hessian
   Vijay G. Chilkuri      : MRCI spin determinant printing, contributions to CSF-ICE
   Dipayan Datta          : RHF DLPNO-CCSD density
   Achintya Kumar Dutta   : EOM-CC, STEOM-CC
   Dmitry Ganyushin       : Spin-Orbit,Spin-Spin,Magnetic field MRCI
   Miquel Garcia          : C-PCM and meta-GGA Hessian, CC/C-PCM, Gaussian charge scheme
   Yang Guo               : DLPNO-NEVPT2, F12-NEVPT2, CIM, IAO-localization
   Andreas Hansen         : Spin unrestricted coupled pair/coupled cluster methods
   Benjamin Helmich-Paris : MC-RPA, TRAH-SCF, COSX integrals
   Lee Huntington         : MR-EOM, pCC
   Robert Izsak           : Overlap fitted RIJCOSX, COSX-SCS-MP3, EOM
   Marcus Kettner         : VPT2
   Christian Kollmar      : KDIIS, OOCD, Brueckner-CCSD(T), CCSD density, CASPT2, CASPT2-K
   Simone Kossmann        : Meta GGA functionals, TD-DFT gradient, OOMP2, MP2 Hessian
   Martin Krupicka        : Initial AUTO-CI
   Lucas Lang             : DCDCAS
   Marvin Lechner         : AUTO-CI (C++ implementation), FIC-MRCC
   Dagmar Lenk            : GEPOL surface, SMD
   Dimitrios Liakos       : Extrapolation schemes; Compound Job, initial MDCI parallelization
   Dimitrios Manganas     : Further ROCIS development; embedding schemes
   Dimitrios Pantazis     : SARC Basis sets
   Anastasios Papadopoulos: AUTO-CI, single reference methods and gradients
   Taras Petrenko         : DFT Hessian,TD-DFT gradient, ASA, ECA, R-Raman, ABS, FL, XAS/XES, NRVS
   Peter Pinski           : DLPNO-MP2, DLPNO-MP2 Gradient
   Christoph Reimann      : Effective Core Potentials
   Marius Retegan         : Local ZFS, SOC
   Christoph Riplinger    : Optimizer, TS searches, QM/MM, DLPNO-CCSD(T), (RO)-DLPNO pert. Triples
   Tobias Risthaus        : Range-separated hybrids, TD-DFT gradient, RPA, STAB
   Michael Roemelt        : Original ROCIS implementation
   Masaaki Saitow         : Open-shell DLPNO-CCSD energy and density
   Barbara Sandhoefer     : DKH picture change effects
   Avijit Sen             : IP-ROCIS
   Kantharuban Sivalingam : CASSCF convergence, NEVPT2, FIC-MRCI
   Bernardo de Souza      : ESD, SOC TD-DFT
   Georgi Stoychev        : AutoAux, RI-MP2 NMR, DLPNO-MP2 response
   Willem Van den Heuvel  : Paramagnetic NMR
   Boris Wezisla          : Elementary symmetry handling
   Frank Wennmohs         : Technical directorship


 We gratefully acknowledge several colleagues who have allowed us to
 interface, adapt or use parts of their codes:
   Stefan Grimme, W. Hujo, H. Kruse, P. Pracht,  : VdW corrections, initial TS optimization,
                  C. Bannwarth, S. Ehlert          DFT functionals, gCP, sTDA/sTD-DF
   Ed Valeev, F. Pavosevic, A. Kumar             : LibInt (2-el integral package), F12 methods
   Garnet Chan, S. Sharma, J. Yang, R. Olivares  : DMRG
   Ulf Ekstrom                                   : XCFun DFT Library
   Mihaly Kallay                                 : mrcc  (arbitrary order and MRCC methods)
   Jiri Pittner, Ondrej Demel                    : Mk-CCSD
   Frank Weinhold                                : gennbo (NPA and NBO analysis)
   Christopher J. Cramer and Donald G. Truhlar   : smd solvation model
   Lars Goerigk                                  : TD-DFT with DH, B97 family of functionals
   V. Asgeirsson, H. Jonsson                     : NEB implementation
   FAccTs GmbH                                   : IRC, NEB, NEB-TS, DLPNO-Multilevel, CI-OPT
                                                   MM, QMMM, 2- and 3-layer-ONIOM, Crystal-QMMM,
                                                   LR-CPCM, SF, NACMEs, symmetry and pop. for TD-DFT,
                                                   nearIR, NL-DFT gradient (VV10), updates on ESD,
                                                   ML-optimized integration grids
   S Lehtola, MJT Oliveira, MAL Marques          : LibXC Library
   Liviu Ungur et al                             : ANISO software


 Your calculation uses the libint2 library for the computation of 2-el integrals
 For citations please refer to: http://libint.valeyev.net

 Your ORCA version has been built with support for libXC version: 5.1.0
 For citations please refer to: https://tddft.org/programs/libxc/

 This ORCA versions uses:
   CBLAS   interface :  Fast vector & matrix operations
   LAPACKE interface :  Fast linear algebra routines
   SCALAPACK package :  Parallel linear algebra routines
   Shared memory     :  Shared parallel matrices
   BLAS/LAPACK       :  OpenBLAS 0.3.15  USE64BITINT DYNAMIC_ARCH NO_AFFINITY SkylakeX SINGLE_THREADED
        Core in use  :  SkylakeX
   Copyright (c) 2011-2014, The OpenBLAS Project


Your calculation utilizes the atom-pairwise dispersion correction
with the zero-damping scheme (D30)
Cite in your paper:
S.Grimme, J.Antony, S.Ehrlich and H.Krieg, J.Chem.Phys., 132, (2010), 154104 
   

XCFun DFT library Copyright 2009-2010 Ulf Ekstrom and contributors.
See http://admol.org/xcfun for more information.
This is free software; see the source code for copying conditions.
There is ABSOLUTELY NO WARRANTY; not even for MERCHANTABILITY or FITNESS FOR A PARTICULAR PURPOSE.
For details see the documentation.
Scientific users of this library should cite U. Ekstrom, L. Visscher, R. Bast, A. J. Thorvaldsen and K. Ruud;
J.Chem.Theor.Comp. 2010, DOI: 10.1021/ct100117s
XCFun Version 0.99 

================================================================================

----- Orbital basis set information -----
Your calculation utilizes the basis: def2-TZVPD
   F. Weigend and R. Ahlrichs, Phys. Chem. Chem. Phys. 7, 3297 (2005).
   D. Rappoport and F. Furche, J. Chem. Phys. 133 134105 (2010).

----- AuxJ basis set information -----
Your calculation utilizes the auxiliary basis: def2/J
   F. Weigend, Phys. Chem. Chem. Phys. 8, 1057 (2006).

================================================================================
                                        WARNINGS
                       Please study these warnings very carefully!
================================================================================


WARNING: Geometry Optimization
  ===> : Switching off AutoStart
         For restart on a previous wavefunction, please use MOREAD

INFO   : the flag for use of the SHARK integral package has been found!

================================================================================
                                       INPUT FILE
================================================================================
NAME = /beegfs/scratch/ispackman/PFAS_EPR_calcs/benchmark/JChemEd_CF3_radical/CF3_radical_100.5_degrees_IN-PROGRESS/CF3_radical_100.5_degrees.inp
|  1> ! UKS TightSCF wB97x-D3 def2-TZVPD xyzfile opt freq
|  2> 
|  3> # CF3 radical 100.5 degrees fixed
|  4> 
|  5> %maxcore 1000
|  6> %pal
|  7> nprocs 18
|  8> end
|  9> 
| 10> %geom Constraints
| 11>         { A * 0 * C }
| 12>     end
| 13> end
| 14> * xyz 0 2
| 15> C 0.00 0.00 0.00
| 16> F 1.1674334318 0.0000000000 -0.6052472076
| 17> F -0.5837167159 1.0110270092 -0.6052472076
| 18> F -0.5837167159 -1.0110270092 -0.6052472076
| 19> **                         ****END OF INPUT****
================================================================================

                       *****************************
                       * Geometry Optimization Run *
                       *****************************

Geometry optimization settings:
Update method            Update   .... BFGS
Choice of coordinates    CoordSys .... Z-matrix Internals
Initial Hessian          InHess   .... Almoef's Model

Convergence Tolerances:
Energy Change            TolE     ....  5.0000e-06 Eh
Max. Gradient            TolMAXG  ....  3.0000e-04 Eh/bohr
RMS Gradient             TolRMSG  ....  1.0000e-04 Eh/bohr
Max. Displacement        TolMAXD  ....  4.0000e-03 bohr
RMS Displacement         TolRMSD  ....  2.0000e-03 bohr
Strict Convergence                ....  False
------------------------------------------------------------------------------
                        ORCA OPTIMIZATION COORDINATE SETUP
------------------------------------------------------------------------------

The optimization will be done in new redundant internal coordinates
Making redundant internal coordinates   ...  (new redundants) done
Evaluating the initial hessian          ...  (Almloef) done
Evaluating the coordinates              ...  done
Calculating the B-matrix                .... done
Calculating the G-matrix                .... done
Diagonalizing the G-matrix              .... done
Imposing constraints:
 Iter   0:  RMS(Cart)=    0.0000000000 RMS(Int)=    0.0000000000
CONVERGED
Will constrain atom 0 coordinate 1 
Will constrain atom 0 coordinate 2 
Will constrain atom 1 coordinate 2 
The first mode is                       ....    1
The number of degrees of freedom        ....    6
Storing new coordinates                 .... done

    -----------------------------------------------------------------
                    Redundant Internal Coordinates


    -----------------------------------------------------------------
         Definition                    Initial Value    Approx d2E/dq
    -----------------------------------------------------------------
      1. B(F   1,C   0)                  1.3150         0.684896   
      2. B(F   2,C   0)                  1.3150         0.684896   
      3. B(F   3,C   0)                  1.3150         0.684896   
      4. A(F   2,C   0,F   3)          100.5000         0.440101 C 
      5. A(F   1,C   0,F   2)          100.5000         0.440101 C 
      6. A(F   1,C   0,F   3)          100.5000         0.440101 C 
      7. I(F   1,F   3,F   2,C   0)     73.4416         0.003069   
    -----------------------------------------------------------------

Number of atoms                         .... 4
Number of degrees of freedom            .... 7

         *************************************************************
         *                GEOMETRY OPTIMIZATION CYCLE   1            *
         *************************************************************
---------------------------------
CARTESIAN COORDINATES (ANGSTROEM)
---------------------------------
  C      0.000000    0.000000    0.000000
  F      1.167433    0.000000   -0.605247
  F     -0.583717    1.011027   -0.605247
  F     -0.583717   -1.011027   -0.605247

----------------------------
CARTESIAN COORDINATES (A.U.)
----------------------------
  NO LB      ZA    FRAG     MASS         X           Y           Z
   0 C     6.0000    0    12.011    0.000000    0.000000    0.000000
   1 F     9.0000    0    18.998    2.206129    0.000000   -1.143751
   2 F     9.0000    0    18.998   -1.103065    1.910564   -1.143751
   3 F     9.0000    0    18.998   -1.103065   -1.910564   -1.143751

--------------------------------
INTERNAL COORDINATES (ANGSTROEM)
--------------------------------
 C      0   0   0     0.000000000000     0.00000000     0.00000000
 F      1   0   0     1.314999999997     0.00000000     0.00000000
 F      1   2   0     1.315000000023   100.50000000     0.00000000
 F      1   2   3     1.315000000023   100.50000000   102.87624628

---------------------------
INTERNAL COORDINATES (A.U.)
---------------------------
 C      0   0   0     0.000000000000     0.00000000     0.00000000
 F      1   0   0     2.484989866101     0.00000000     0.00000000
 F      1   2   0     2.484989866150   100.50000000     0.00000000
 F      1   2   3     2.484989866150   100.50000000   102.87624628

---------------------
BASIS SET INFORMATION
---------------------
There are 2 groups of distinct atoms

 Group   1 Type C   : 12s6p3d1f contracted to 6s3p3d1f pattern {621111/411/111/1}
 Group   2 Type F   : 12s7p3d1f contracted to 6s4p3d1f pattern {621111/4111/111/1}

Atom   0C    basis set group =>   1
Atom   1F    basis set group =>   2
Atom   2F    basis set group =>   2
Atom   3F    basis set group =>   2
---------------------------------
AUXILIARY/J BASIS SET INFORMATION
---------------------------------
There are 2 groups of distinct atoms

 Group   1 Type C   : 12s5p4d2f1g contracted to 6s4p3d1f1g pattern {711111/2111/211/2/1}
 Group   2 Type F   : 12s5p4d2f1g contracted to 6s4p3d1f1g pattern {711111/2111/211/2/1}

Atom   0C    basis set group =>   1
Atom   1F    basis set group =>   2
Atom   2F    basis set group =>   2
Atom   3F    basis set group =>   2


           ************************************************************
           *        Program running with 18 parallel MPI-processes    *
           *              working on a common directory               *
           ************************************************************
------------------------------------------------------------------------------
                           ORCA GTO INTEGRAL CALCULATION
                           -- RI-GTO INTEGRALS CHOSEN --
------------------------------------------------------------------------------
------------------------------------------------------------------------------
                   ___                                                        
                  /   \      - P O W E R E D   B Y -                         
                 /     \                                                     
                 |  |  |   _    _      __       _____    __    __             
                 |  |  |  | |  | |    /  \     |  _  \  |  |  /  |          
                  \  \/   | |  | |   /    \    | | | |  |  | /  /          
                 / \  \   | |__| |  /  /\  \   | |_| |  |  |/  /          
                |  |  |   |  __  | /  /__\  \  |    /   |      \           
                |  |  |   | |  | | |   __   |  |    \   |  |\   \          
                \     /   | |  | | |  |  |  |  | |\  \  |  | \   \       
                 \___/    |_|  |_| |__|  |__|  |_| \__\ |__|  \__/        
                                                                              
                      - O R C A' S   B I G   F R I E N D -                    
                                      &                                       
                       - I N T E G R A L  F E E D E R -                       
                                                                              
 v1 FN, 2020, v2 2021                                                         
------------------------------------------------------------------------------


Reading SHARK input file /beegfs/scratch/ispackman/PFAS_EPR_calcs/benchmark/JChemEd_CF3_radical/CF3_radical_100.5_degrees_IN-PROGRESS/CF3_radical_100.5_degrees.SHARKINP.tmp ... ok
----------------------
SHARK INTEGRAL PACKAGE
----------------------

Number of atoms                             ...      4
Number of basis functions                   ...    157
Number of shells                            ...     55
Maximum angular momentum                    ...      3
Integral batch strategy                     ... SHARK/LIBINT Hybrid
RI-J (if used) integral strategy            ... SPLIT-RIJ (Revised 2003 algorithm where possible)
Printlevel                                  ...      1
Contraction scheme used                     ... SEGMENTED contraction
Coulomb Range Separation                    ... NOT USED
Exchange Range Separation                   ... Long Range
   Mu parameter                             ...  0.250000
   Scaling (regular/separated)              ...  0.195728  0.804272
Finite Nucleus Model                        ... NOT USED
Auxiliary Coulomb fitting basis             ... AVAILABLE
   # of basis functions in Aux-J            ...    196
   # of shells in Aux-J                     ...     60
   Maximum angular momentum in Aux-J        ...      4
Auxiliary J/K fitting basis                 ... NOT available
Auxiliary Correlation fitting basis         ... NOT available
Auxiliary 'external' fitting basis          ... NOT available
Integral threshold                          ...     2.500000e-11
Primitive cut-off                           ...     2.500000e-12
Primitive pair pre-selection threshold      ...     2.500000e-12

Calculating pre-screening integrals         ... done (  0.0 sec) Dimension = 55
Organizing shell pair data                  ... done (  0.0 sec)
Shell pair information
Total number of shell pairs                 ...      1540
Shell pairs after pre-screening             ...      1510
Total number of primitive shell pairs       ...      4274
Primitive shell pairs kept                  ...      3581
          la=0 lb=0:    282 shell pairs
          la=1 lb=0:    360 shell pairs
          la=1 lb=1:    120 shell pairs
          la=2 lb=0:    276 shell pairs
          la=2 lb=1:    180 shell pairs
          la=2 lb=2:     78 shell pairs
          la=3 lb=0:     96 shell pairs
          la=3 lb=1:     60 shell pairs
          la=3 lb=2:     48 shell pairs
          la=3 lb=3:     10 shell pairs

Calculating one electron integrals          ... done (  0.0 sec)
Calculating RI/J V-Matrix + Cholesky decomp.... done (  1.7 sec)
Calculating Nuclear repulsion               ... done (  0.0 sec) ENN=    128.785194327646 Eh

SHARK setup successfully completed in  11.4 seconds

Maximum memory used throughout the entire GTOINT-calculation: 15.2 MB


           ************************************************************
           *        Program running with 18 parallel MPI-processes    *
           *              working on a common directory               *
           ************************************************************
-------------------------------------------------------------------------------
                                 ORCA SCF
-------------------------------------------------------------------------------

------------
SCF SETTINGS
------------
Hamiltonian:
 Density Functional     Method          .... DFT(GTOs)
 Exchange Functional    Exchange        .... WB97X-D3
 Correlation Functional Correlation     .... WB97X-D3
 Gradients option       PostSCFGGA      .... off
 Hybrid DFT is turned on
   Fraction HF Exchange ScalHFX         ....  0.195728
   Scaling of DF-GGA-X  ScalDFX         ....  0.000000
   Scaling of DF-GGA-C  ScalDFC         ....  1.000000
   Scaling of DF-LDA-C  ScalLDAC        ....  1.000000
   Perturbative correction              ....  0.000000
   Density functional embedding theory  .... OFF
 Long-range corrected/Screened/Range-Separated Hybrid DFT is turned on
   Amount of maximum screened exact exchange              ....  0.804272
   Range separation parameter mu (erf(mu*r12)/r12)        ....  0.250000
 RI-approximation to the Coulomb term is turned on
   Number of AuxJ basis functions       .... 196
   RIJ-COSX (HFX calculated with COS-X)).... on


General Settings:
 Integral files         IntName         .... /beegfs/scratch/ispackman/PFAS_EPR_calcs/benchmark/JChemEd_CF3_radical/CF3_radical_100.5_degrees_IN-PROGRESS/CF3_radical_100.5_degrees
 Hartree-Fock type      HFTyp           .... UHF
 Total Charge           Charge          ....    0
 Multiplicity           Mult            ....    2
 Number of Electrons    NEL             ....   33
 Basis Dimension        Dim             ....  157
 Nuclear Repulsion      ENuc            ....    128.7851943276 Eh

Convergence Acceleration:
 DIIS                   CNVDIIS         .... on
   Start iteration      DIISMaxIt       ....    12
   Startup error        DIISStart       ....  0.200000
   # of expansion vecs  DIISMaxEq       ....     5
   Bias factor          DIISBfac        ....   1.050
   Max. coefficient     DIISMaxC        ....  10.000
 Trust-Rad. Augm. Hess. CNVTRAH         .... auto
   Auto Start mean grad. ratio tolernc. ....  1.125000
   Auto Start start iteration           ....    20
   Auto Start num. interpolation iter.  ....    10
   Max. Number of Micro iterations      ....    16
   Max. Number of Macro iterations      .... Maxiter - #DIIS iter
   Number of Davidson start vectors     ....     2
   Converg. threshold I  (grad. norm)   ....   1.000e-05
   Converg. threshold II (energy diff.) ....   1.000e-08
   Grad. Scal. Fac. for Micro threshold ....   0.100
   Minimum threshold for Micro iter.    ....   0.010
   NR start threshold (gradient norm)   ....   0.001
   Initial trust radius                 ....   0.400
   Minimum AH scaling param. (alpha)    ....   1.000
   Maximum AH scaling param. (alpha)    .... 1000.000
   Orbital update algorithm             .... Taylor
   White noise on init. David. guess    .... on
   Maximum white noise                  ....   0.010
   Quad. conv. algorithm                .... NR
 SOSCF                  CNVSOSCF        .... off
 Level Shifting         CNVShift        .... on
   Level shift para.    LevelShift      ....    0.2500
   Turn off err/grad.   ShiftErr        ....    0.0010
 Zerner damping         CNVZerner       .... off
 Static damping         CNVDamp         .... on
   Fraction old density DampFac         ....    0.7000
   Max. Damping (<1)    DampMax         ....    0.9800
   Min. Damping (>=0)   DampMin         ....    0.0000
   Turn off err/grad.   DampErr         ....    0.1000
 Fernandez-Rico         CNVRico         .... off

SCF Procedure:
 Maximum # iterations   MaxIter         ....   125
 SCF integral mode      SCFMode         .... Direct
   Integral package                     .... SHARK and LIBINT hybrid scheme
 Reset frequency        DirectResetFreq ....    20
 Integral Threshold     Thresh          ....  2.500e-11 Eh
 Primitive CutOff       TCut            ....  2.500e-12 Eh

Convergence Tolerance:
 Convergence Check Mode ConvCheckMode   .... Total+1el-Energy
 Convergence forced     ConvForced      .... 0
 Energy Change          TolE            ....  1.000e-08 Eh
 1-El. energy change                    ....  1.000e-05 Eh
 DIIS Error             TolErr          ....  5.000e-07


Diagonalization of the overlap matrix:
Smallest eigenvalue                        ... 3.597e-04
Time for diagonalization                   ...    0.008 sec
Threshold for overlap eigenvalues          ... 1.000e-08
Number of eigenvalues below threshold      ... 0
Time for construction of square roots      ...    0.029 sec
Total time needed                          ...    0.038 sec

Time for model grid setup =    0.085 sec

------------------------------
INITIAL GUESS: MODEL POTENTIAL
------------------------------
Loading Hartree-Fock densities                     ... done
Calculating cut-offs                               ... done
Initializing the effective Hamiltonian             ... done
Setting up the integral package (SHARK)            ... done
Starting the Coulomb interaction                   ... done (   0.8 sec)
Reading the grid                                   ... done
Mapping shells                                     ... done
Starting the XC term evaluation                    ... done (   0.0 sec)
  promolecular density results
     # of electrons  =     33.000306192
     EX              =    -35.103681064
     EC              =     -1.148397112
     EX+EC           =    -36.252078176
Transforming the Hamiltonian                       ... done (   0.0 sec)
Diagonalizing the Hamiltonian                      ... done (   0.0 sec)
Back transforming the eigenvectors                 ... done (   0.0 sec)
Now organizing SCF variables                       ... done
                      ------------------
                      INITIAL GUESS DONE (   1.0 sec)
                      ------------------
-------------------
DFT GRID GENERATION
-------------------

General Integration Accuracy     IntAcc      ... 4.388
Radial Grid Type                 RadialGrid  ... OptM3 with GC (2021)
Angular Grid (max. ang.)         AngularGrid ... 4 (Lebedev-302)
Angular grid pruning method      GridPruning ... 4 (adaptive)
Weight generation scheme         WeightScheme... Becke
Basis function cutoff            BFCut       ... 1.0000e-11
Integration weight cutoff        WCut        ... 1.0000e-14
Angular grids for H and He will be reduced by one unit
Partially contracted basis set               ... off
Rotationally invariant grid construction     ... off

Total number of grid points                  ...    25781
Total number of batches                      ...      405
Average number of points per batch           ...       63
Average number of grid points per atom       ...     6445
Time for grid setup =    0.162 sec

--------------------
COSX GRID GENERATION
--------------------

GRIDX 1
-------
General Integration Accuracy     IntAcc      ... 3.816
Radial Grid Type                 RadialGrid  ... OptM3 with GC (2021)
Angular Grid (max. ang.)         AngularGrid ... 1 (Lebedev-50)
Angular grid pruning method      GridPruning ... 4 (adaptive)
Weight generation scheme         WeightScheme... Becke
Basis function cutoff            BFCut       ... 1.0000e-11
Integration weight cutoff        WCut        ... 1.0000e-14
Angular grids for H and He will be reduced by one unit
Partially contracted basis set               ... on
Rotationally invariant grid construction     ... off

Total number of grid points                  ...     3272
Total number of batches                      ...       53
Average number of points per batch           ...       61
Average number of grid points per atom       ...      818
UseSFitting                                  ... on

GRIDX 2
-------
General Integration Accuracy     IntAcc      ... 4.020
Radial Grid Type                 RadialGrid  ... OptM3 with GC (2021)
Angular Grid (max. ang.)         AngularGrid ... 2 (Lebedev-110)
Angular grid pruning method      GridPruning ... 4 (adaptive)
Weight generation scheme         WeightScheme... Becke
Basis function cutoff            BFCut       ... 1.0000e-11
Integration weight cutoff        WCut        ... 1.0000e-14
Angular grids for H and He will be reduced by one unit
Partially contracted basis set               ... on
Rotationally invariant grid construction     ... off

Total number of grid points                  ...     9119
Total number of batches                      ...      145
Average number of points per batch           ...       62
Average number of grid points per atom       ...     2280
UseSFitting                                  ... on

GRIDX 3
-------
General Integration Accuracy     IntAcc      ... 4.338
Radial Grid Type                 RadialGrid  ... OptM3 with GC (2021)
Angular Grid (max. ang.)         AngularGrid ... 3 (Lebedev-194)
Angular grid pruning method      GridPruning ... 4 (adaptive)
Weight generation scheme         WeightScheme... Becke
Basis function cutoff            BFCut       ... 1.0000e-11
Integration weight cutoff        WCut        ... 1.0000e-14
Angular grids for H and He will be reduced by one unit
Partially contracted basis set               ... on
Rotationally invariant grid construction     ... off

Total number of grid points                  ...    19676
Total number of batches                      ...      310
Average number of points per batch           ...       63
Average number of grid points per atom       ...     4919
UseSFitting                                  ... on

Time for X-Grid setup             =    0.359 sec

--------------
SCF ITERATIONS
--------------
ITER       Energy         Delta-E        Max-DP      RMS-DP      [F,P]     Damp
               ***  Starting incremental Fock matrix formation  ***
  0   -337.5352349139   0.000000000000 0.01754230  0.00040561  0.0673838 0.7000
  1   -337.5633791580  -0.028144244095 0.01037055  0.00026987  0.0315354 0.7000
                               ***Turning on DIIS***
  2   -337.5750704712  -0.011691313191 0.02502925  0.00051274  0.0167054 0.0000
  3   -337.5958427011  -0.020772229844 0.00658714  0.00015134  0.0149177 0.0000
  4   -337.5991769316  -0.003334230502 0.00507265  0.00008229  0.0035255 0.0000
  5   -337.5993956104  -0.000218678848 0.00292404  0.00004890  0.0020455 0.0000
  6   -337.5994621147  -0.000066504313 0.00259849  0.00004457  0.0008652 0.0000
               *** Restarting incremental Fock matrix formation ***
                                   *** Resetting DIIS ***
  7   -337.5994898969  -0.000027782141 0.00050281  0.00000770  0.0001821 0.0000
  8   -337.5994907068  -0.000000809966 0.00009376  0.00000215  0.0000952 0.0000
  9   -337.5994908999  -0.000000193084 0.00005665  0.00000148  0.0000910 0.0000
 10   -337.5994909928  -0.000000092841 0.00004646  0.00000057  0.0000118 0.0000
 11   -337.5994909953  -0.000000002561 0.00001334  0.00000016  0.0000019 0.0000
                            ***DIIS convergence achieved***

               *****************************************************
               *                     SUCCESS                       *
               *           SCF CONVERGED AFTER  12 CYCLES          *
               *****************************************************

Old exchange energy                            =    -10.542683717 Eh
New exchange energy                            =    -10.542665495 Eh
Exchange energy change after final integration =      0.000018222 Eh
Total energy after final integration           =   -337.599472774 Eh
Final COS-X integration done in                =     0.389 sec

----------------
TOTAL SCF ENERGY
----------------

Total Energy       :         -337.59947277 Eh           -9186.54869 eV

Components:
Nuclear Repulsion  :          128.78519433 Eh            3504.42330 eV
Electronic Energy  :         -466.38466710 Eh          -12690.97199 eV
One Electron Energy:         -724.50999581 Eh          -19714.91927 eV
Two Electron Energy:          258.12532871 Eh            7023.94728 eV
Max COSX asymmetry :            0.00000044 Eh               0.00001 eV

Virial components:
Potential Energy   :         -674.41142597 Eh          -18351.66788 eV
Kinetic Energy     :          336.81195319 Eh            9165.11919 eV
Virial Ratio       :            2.00233816


DFT components:
N(Alpha)           :       16.999884901769 electrons
N(Beta)            :       15.999895967945 electrons
N(Total)           :       32.999780869714 electrons
E(XC)              :      -26.216294345311 Eh       
DFET-embed. en.    :        0.000000000000 Eh       

---------------
SCF CONVERGENCE
---------------

  Last Energy change         ...   -1.3148e-10  Tolerance :   1.0000e-08
  Last MAX-Density change    ...    0.0000e+00  Tolerance :   1.0000e-07
  Last RMS-Density change    ...    0.0000e+00  Tolerance :   5.0000e-09
  Last DIIS Error            ...    7.9704e-07  Tolerance :   5.0000e-07

             **** THE GBW FILE WAS UPDATED (/beegfs/scratch/ispackman/PFAS_EPR_calcs/benchmark/JChemEd_CF3_radical/CF3_radical_100.5_degrees_IN-PROGRESS/CF3_radical_100.5_degrees.gbw) ****
             **** DENSITY /beegfs/scratch/ispackman/PFAS_EPR_calcs/benchmark/JChemEd_CF3_radical/CF3_radical_100.5_degrees_IN-PROGRESS/CF3_radical_100.5_degrees.scfp WAS UPDATED ****
             **** ENERGY FILE WAS UPDATED (/beegfs/scratch/ispackman/PFAS_EPR_calcs/benchmark/JChemEd_CF3_radical/CF3_radical_100.5_degrees_IN-PROGRESS/CF3_radical_100.5_degrees.en.tmp) ****
----------------------
UHF SPIN CONTAMINATION
----------------------

Warning: in a DFT calculation there is little theoretical justification to 
         calculate <S**2> as in Hartree-Fock theory. We will do it anyways
         but you should keep in mind that the values have only limited relevance

Expectation value of <S**2>     :     0.752161
Ideal value S*(S+1) for S=0.5   :     0.750000
Deviation                       :     0.002161

             **** THE GBW FILE WAS UPDATED (/beegfs/scratch/ispackman/PFAS_EPR_calcs/benchmark/JChemEd_CF3_radical/CF3_radical_100.5_degrees_IN-PROGRESS/CF3_radical_100.5_degrees.gbw) ****
             **** DENSITY /beegfs/scratch/ispackman/PFAS_EPR_calcs/benchmark/JChemEd_CF3_radical/CF3_radical_100.5_degrees_IN-PROGRESS/CF3_radical_100.5_degrees.scfp WAS UPDATED ****
----------------
ORBITAL ENERGIES
----------------
                 SPIN UP ORBITALS
  NO   OCC          E(Eh)            E(eV) 
   0   1.0000     -24.838819      -675.8986 
   1   1.0000     -24.838817      -675.8986 
   2   1.0000     -24.838808      -675.8983 
   3   1.0000     -10.551305      -287.1156 
   4   1.0000      -1.485419       -40.4203 
   5   1.0000      -1.366250       -37.1775 
   6   1.0000      -1.366244       -37.1774 
   7   1.0000      -0.838433       -22.8149 
   8   1.0000      -0.724613       -19.7177 
   9   1.0000      -0.724605       -19.7175 
  10   1.0000      -0.707907       -19.2631 
  11   1.0000      -0.606083       -16.4924 
  12   1.0000      -0.606077       -16.4922 
  13   1.0000      -0.544598       -14.8193 
  14   1.0000      -0.544593       -14.8191 
  15   1.0000      -0.524553       -14.2738 
  16   1.0000      -0.433943       -11.8082 
  17   0.0000       0.072556         1.9744 
  18   0.0000       0.105400         2.8681 
  19   0.0000       0.105400         2.8681 
  20   0.0000       0.111830         3.0430 
  21   0.0000       0.159970         4.3530 
  22   0.0000       0.159971         4.3530 
  23   0.0000       0.172158         4.6846 
  24   0.0000       0.172158         4.6847 
  25   0.0000       0.190244         5.1768 
  26   0.0000       0.213541         5.8107 
  27   0.0000       0.213548         5.8109 
  28   0.0000       0.240845         6.5537 
  29   0.0000       0.288090         7.8393 
  30   0.0000       0.348583         9.4854 
  31   0.0000       0.348590         9.4856 
  32   0.0000       0.351219         9.5572 
  33   0.0000       0.385252        10.4832 
  34   0.0000       0.385252        10.4832 
  35   0.0000       0.400581        10.9004 
  36   0.0000       0.402864        10.9625 
  37   0.0000       0.402865        10.9625 
  38   0.0000       0.424545        11.5525 
  39   0.0000       0.486708        13.2440 
  40   0.0000       0.486714        13.2442 
  41   0.0000       0.524653        14.2765 
  42   0.0000       0.567152        15.4330 
  43   0.0000       0.625610        17.0237 
  44   0.0000       0.625612        17.0238 
  45   0.0000       0.696449        18.9513 
  46   0.0000       0.696453        18.9515 
  47   0.0000       0.709468        19.3056 
  48   0.0000       0.727697        19.8017 
  49   0.0000       0.732604        19.9352 
  50   0.0000       0.732613        19.9354 
  51   0.0000       0.766755        20.8645 
  52   0.0000       0.794386        21.6164 
  53   0.0000       0.794387        21.6164 
  54   0.0000       0.872751        23.7488 
  55   0.0000       0.900949        24.5161 
  56   0.0000       0.900954        24.5162 
  57   0.0000       0.931076        25.3359 
  58   0.0000       0.971539        26.4369 
  59   0.0000       0.971549        26.4372 
  60   0.0000       1.077515        29.3207 
  61   0.0000       1.077518        29.3208 
  62   0.0000       1.111586        30.2478 
  63   0.0000       1.163861        31.6703 
  64   0.0000       1.163868        31.6705 
  65   0.0000       1.166985        31.7553 
  66   0.0000       1.237490        33.6738 
  67   0.0000       1.249138        33.9908 
  68   0.0000       1.249139        33.9908 
  69   0.0000       1.311869        35.6978 
  70   0.0000       1.311872        35.6979 
  71   0.0000       1.339865        36.4596 
  72   0.0000       1.455593        39.6087 
  73   0.0000       1.455625        39.6096 
  74   0.0000       1.660067        45.1727 
  75   0.0000       2.127501        57.8922 
  76   0.0000       2.168572        59.0098 
  77   0.0000       2.168577        59.0100 
  78   0.0000       2.196992        59.7832 
  79   0.0000       2.214860        60.2694 
  80   0.0000       2.219956        60.4081 
  81   0.0000       2.219968        60.4084 
  82   0.0000       2.328681        63.3666 
  83   0.0000       2.328722        63.3677 
  84   0.0000       2.412112        65.6369 
  85   0.0000       2.465108        67.0790 
  86   0.0000       2.465113        67.0791 
  87   0.0000       2.591094        70.5073 
  88   0.0000       2.591104        70.5075 
  89   0.0000       2.850261        77.5595 
  90   0.0000       2.927996        79.6748 
  91   0.0000       2.933846        79.8340 
  92   0.0000       2.933884        79.8350 
  93   0.0000       3.077946        83.7552 
  94   0.0000       3.182751        86.6071 
  95   0.0000       3.183475        86.6268 
  96   0.0000       3.183527        86.6282 
  97   0.0000       3.294114        89.6374 
  98   0.0000       3.294180        89.6392 
  99   0.0000       3.400131        92.5223 
 100   0.0000       3.400151        92.5228 
 101   0.0000       3.440839        93.6300 
 102   0.0000       3.625095        98.6439 
 103   0.0000       3.625101        98.6440 
 104   0.0000       3.700901       100.7066 
 105   0.0000       3.834902       104.3530 
 106   0.0000       3.927086       106.8614 
 107   0.0000       3.962533       107.8260 
 108   0.0000       3.962600       107.8278 
 109   0.0000       4.099453       111.5518 
 110   0.0000       4.099466       111.5521 
 111   0.0000       4.199152       114.2647 
 112   0.0000       4.275667       116.3468 
 113   0.0000       4.275722       116.3483 
 114   0.0000       5.390763       146.6901 
 115   0.0000       5.390793       146.6909 
 116   0.0000       5.454465       148.4235 
 117   0.0000       6.912319       188.0938 
 118   0.0000       6.912333       188.0941 
 119   0.0000       6.914954       188.1655 
 120   0.0000       6.924125       188.4150 
 121   0.0000       6.924182       188.4166 
 122   0.0000       6.930427       188.5865 
 123   0.0000       6.934867       188.7073 
 124   0.0000       6.934920       188.7088 
 125   0.0000       6.949526       189.1062 
 126   0.0000       7.065187       192.2535 
 127   0.0000       7.065276       192.2559 
 128   0.0000       7.157580       194.7677 
 129   0.0000       7.251730       197.3296 
 130   0.0000       7.251736       197.3298 
 131   0.0000       7.260031       197.5555 
 132   0.0000       7.483185       203.6278 
 133   0.0000       7.513240       204.4457 
 134   0.0000       7.570579       206.0059 
 135   0.0000       7.570593       206.0063 
 136   0.0000       7.778320       211.6588 
 137   0.0000       7.778401       211.6611 
 138   0.0000       8.516904       231.7567 
 139   0.0000       8.516936       231.7576 
 140   0.0000       8.574134       233.3141 
 141   0.0000       8.594380       233.8650 
 142   0.0000       8.612987       234.3713 
 143   0.0000       8.613076       234.3737 
 144   0.0000       8.821188       240.0367 
 145   0.0000       8.830214       240.2823 
 146   0.0000       8.830234       240.2829 
 147   0.0000       9.016157       245.3421 
 148   0.0000       9.134723       248.5685 
 149   0.0000       9.134782       248.5701 
 150   0.0000       9.249819       251.7004 
 151   0.0000       9.404357       255.9056 
 152   0.0000       9.404405       255.9069 
 153   0.0000      22.689812       617.4212 
 154   0.0000      57.348453      1560.5307 
 155   0.0000      57.348489      1560.5317 
 156   0.0000      57.409746      1562.1986 

                 SPIN DOWN ORBITALS
  NO   OCC          E(Eh)            E(eV) 
   0   1.0000     -24.835965      -675.8210 
   1   1.0000     -24.835961      -675.8209 
   2   1.0000     -24.835947      -675.8205 
   3   1.0000     -10.538412      -286.7648 
   4   1.0000      -1.476551       -40.1790 
   5   1.0000      -1.357606       -36.9423 
   6   1.0000      -1.357600       -36.9422 
   7   1.0000      -0.820336       -22.3225 
   8   1.0000      -0.714077       -19.4310 
   9   1.0000      -0.714068       -19.4308 
  10   1.0000      -0.666994       -18.1498 
  11   1.0000      -0.594399       -16.1744 
  12   1.0000      -0.594393       -16.1742 
  13   1.0000      -0.536969       -14.6117 
  14   1.0000      -0.536963       -14.6115 
  15   1.0000      -0.521257       -14.1841 
  16   0.0000      -0.082396        -2.2421 
  17   0.0000       0.082866         2.2549 
  18   0.0000       0.108530         2.9532 
  19   0.0000       0.108530         2.9533 
  20   0.0000       0.126577         3.4443 
  21   0.0000       0.164767         4.4836 
  22   0.0000       0.164768         4.4836 
  23   0.0000       0.177873         4.8402 
  24   0.0000       0.177873         4.8402 
  25   0.0000       0.201167         5.4740 
  26   0.0000       0.236380         6.4322 
  27   0.0000       0.236382         6.4323 
  28   0.0000       0.241649         6.5756 
  29   0.0000       0.293820         7.9952 
  30   0.0000       0.363487         9.8910 
  31   0.0000       0.368834        10.0365 
  32   0.0000       0.368839        10.0366 
  33   0.0000       0.386455        10.5160 
  34   0.0000       0.386456        10.5160 
  35   0.0000       0.405728        11.0404 
  36   0.0000       0.405729        11.0404 
  37   0.0000       0.408887        11.1264 
  38   0.0000       0.434227        11.8159 
  39   0.0000       0.488170        13.2838 
  40   0.0000       0.488176        13.2839 
  41   0.0000       0.528525        14.3819 
  42   0.0000       0.572621        15.5818 
  43   0.0000       0.627558        17.0767 
  44   0.0000       0.627564        17.0769 
  45   0.0000       0.697835        18.9891 
  46   0.0000       0.697837        18.9891 
  47   0.0000       0.709743        19.3131 
  48   0.0000       0.735223        20.0064 
  49   0.0000       0.735234        20.0067 
  50   0.0000       0.738552        20.0970 
  51   0.0000       0.765967        20.8430 
  52   0.0000       0.796280        21.6679 
  53   0.0000       0.796280        21.6679 
  54   0.0000       0.873937        23.7810 
  55   0.0000       0.903463        24.5845 
  56   0.0000       0.903467        24.5846 
  57   0.0000       0.945601        25.7311 
  58   0.0000       0.979135        26.6436 
  59   0.0000       0.979146        26.6439 
  60   0.0000       1.080724        29.4080 
  61   0.0000       1.080730        29.4081 
  62   0.0000       1.115862        30.3642 
  63   0.0000       1.165845        31.7243 
  64   0.0000       1.165859        31.7246 
  65   0.0000       1.180191        32.1146 
  66   0.0000       1.239974        33.7414 
  67   0.0000       1.260098        34.2890 
  68   0.0000       1.260103        34.2891 
  69   0.0000       1.319071        35.8938 
  70   0.0000       1.319095        35.8944 
  71   0.0000       1.340236        36.4697 
  72   0.0000       1.457563        39.6623 
  73   0.0000       1.457595        39.6632 
  74   0.0000       1.714881        46.6643 
  75   0.0000       2.136827        58.1460 
  76   0.0000       2.178080        59.2686 
  77   0.0000       2.178098        59.2691 
  78   0.0000       2.200374        59.8752 
  79   0.0000       2.225576        60.5610 
  80   0.0000       2.227745        60.6200 
  81   0.0000       2.227752        60.6202 
  82   0.0000       2.333545        63.4990 
  83   0.0000       2.333584        63.5000 
  84   0.0000       2.413428        65.6727 
  85   0.0000       2.471779        67.2605 
  86   0.0000       2.471781        67.2606 
  87   0.0000       2.615643        71.1753 
  88   0.0000       2.615669        71.1760 
  89   0.0000       2.857685        77.7616 
  90   0.0000       2.933124        79.8144 
  91   0.0000       2.938675        79.9654 
  92   0.0000       2.938706        79.9662 
  93   0.0000       3.096136        84.2501 
  94   0.0000       3.197566        87.0102 
  95   0.0000       3.197609        87.0114 
  96   0.0000       3.235520        88.0430 
  97   0.0000       3.321818        90.3913 
  98   0.0000       3.321869        90.3927 
  99   0.0000       3.444155        93.7202 
 100   0.0000       3.444156        93.7203 
 101   0.0000       3.449324        93.8609 
 102   0.0000       3.643772        99.1521 
 103   0.0000       3.643784        99.1524 
 104   0.0000       3.735978       101.6611 
 105   0.0000       3.844404       104.6115 
 106   0.0000       3.934138       107.0533 
 107   0.0000       3.991479       108.6137 
 108   0.0000       3.991525       108.6149 
 109   0.0000       4.107127       111.7606 
 110   0.0000       4.107133       111.7608 
 111   0.0000       4.211410       114.5983 
 112   0.0000       4.285941       116.6264 
 113   0.0000       4.285996       116.6279 
 114   0.0000       5.400283       146.9492 
 115   0.0000       5.400299       146.9496 
 116   0.0000       5.467196       148.7700 
 117   0.0000       6.917966       188.2474 
 118   0.0000       6.917984       188.2479 
 119   0.0000       6.920071       188.3047 
 120   0.0000       6.927290       188.5011 
 121   0.0000       6.927340       188.5025 
 122   0.0000       6.935862       188.7344 
 123   0.0000       6.940205       188.8526 
 124   0.0000       6.940253       188.8539 
 125   0.0000       6.952010       189.1738 
 126   0.0000       7.070665       192.4026 
 127   0.0000       7.070749       192.4049 
 128   0.0000       7.161678       194.8792 
 129   0.0000       7.259410       197.5386 
 130   0.0000       7.259413       197.5387 
 131   0.0000       7.266569       197.7334 
 132   0.0000       7.492823       203.8901 
 133   0.0000       7.521363       204.6667 
 134   0.0000       7.577257       206.1876 
 135   0.0000       7.577265       206.1879 
 136   0.0000       7.786140       211.8716 
 137   0.0000       7.786231       211.8741 
 138   0.0000       8.524544       231.9646 
 139   0.0000       8.524573       231.9654 
 140   0.0000       8.581818       233.5231 
 141   0.0000       8.604346       234.1362 
 142   0.0000       8.622657       234.6344 
 143   0.0000       8.622746       234.6368 
 144   0.0000       8.826362       240.1775 
 145   0.0000       8.839617       240.5382 
 146   0.0000       8.839640       240.5388 
 147   0.0000       9.025134       245.5864 
 148   0.0000       9.139553       248.6999 
 149   0.0000       9.139604       248.7013 
 150   0.0000       9.255605       251.8578 
 151   0.0000       9.411051       256.0877 
 152   0.0000       9.411101       256.0891 
 153   0.0000      22.712945       618.0507 
 154   0.0000      57.351277      1560.6076 
 155   0.0000      57.351314      1560.6086 
 156   0.0000      57.412600      1562.2763 

                    ********************************
                    * MULLIKEN POPULATION ANALYSIS *
                    ********************************

--------------------------------------------
MULLIKEN ATOMIC CHARGES AND SPIN POPULATIONS
--------------------------------------------
   0 C :    0.566441    0.782019
   1 F :   -0.188794    0.072680
   2 F :   -0.188823    0.072650
   3 F :   -0.188824    0.072651
Sum of atomic charges         :    0.0000000
Sum of atomic spin populations:    1.0000000

-----------------------------------------------------
MULLIKEN REDUCED ORBITAL CHARGES AND SPIN POPULATIONS
-----------------------------------------------------
CHARGE
  0 C s       :     3.187597  s :     3.187597
      pz      :     0.832052  p :     1.910122
      px      :     0.539023
      py      :     0.539047
      dz2     :     0.060431  d :     0.292553
      dxz     :     0.046940
      dyz     :     0.046955
      dx2y2   :     0.069114
      dxy     :     0.069113
      f0      :     0.001463  f :     0.043287
      f+1     :     0.006725
      f-1     :     0.006726
      f+2     :     0.007376
      f-2     :     0.007380
      f+3     :     0.004013
      f-3     :     0.009605
  1 F s       :     3.953164  s :     3.953164
      pz      :     1.734240  p :     5.225996
      px      :     1.564468
      py      :     1.927288
      dz2     :     0.000663  d :     0.008788
      dxz     :     0.005302
      dyz     :     0.001612
      dx2y2   :     0.004367
      dxy     :    -0.003154
      f0      :     0.000084  f :     0.000845
      f+1     :     0.000175
      f-1     :     0.000006
      f+2     :     0.000221
      f-2     :     0.000073
      f+3     :     0.000156
      f-3     :     0.000131
  2 F s       :     3.953203  s :     3.953203
      pz      :     1.734213  p :     5.226006
      px      :     1.836593
      py      :     1.655200
      dz2     :     0.000659  d :     0.008769
      dxz     :     0.002532
      dyz     :     0.004376
      dx2y2   :    -0.001276
      dxy     :     0.002478
      f0      :     0.000084  f :     0.000845
      f+1     :     0.000048
      f-1     :     0.000133
      f+2     :     0.000110
      f-2     :     0.000184
      f+3     :     0.000156
      f-3     :     0.000131
  3 F s       :     3.953204  s :     3.953204
      pz      :     1.734213  p :     5.226006
      px      :     1.836593
      py      :     1.655200
      dz2     :     0.000659  d :     0.008769
      dxz     :     0.002532
      dyz     :     0.004376
      dx2y2   :    -0.001276
      dxy     :     0.002478
      f0      :     0.000084  f :     0.000845
      f+1     :     0.000048
      f-1     :     0.000133
      f+2     :     0.000110
      f-2     :     0.000184
      f+3     :     0.000156
      f-3     :     0.000131

SPIN
  0 C s       :     0.276414  s :     0.276414
      pz      :     0.471005  p :     0.496327
      px      :     0.012657
      py      :     0.012666
      dz2     :     0.014800  d :     0.010023
      dxz     :    -0.001464
      dyz     :    -0.001465
      dx2y2   :    -0.000926
      dxy     :    -0.000922
      f0      :    -0.000037  f :    -0.000746
      f+1     :    -0.000339
      f-1     :    -0.000338
      f+2     :    -0.000202
      f-2     :    -0.000202
      f+3     :     0.000330
      f-3     :     0.000042
  1 F s       :     0.003201  s :     0.003201
      pz      :     0.072040  p :     0.067976
      px      :    -0.002847
      py      :    -0.001218
      dz2     :    -0.000075  d :     0.001474
      dxz     :     0.000842
      dyz     :    -0.000015
      dx2y2   :     0.000818
      dxy     :    -0.000097
      f0      :     0.000002  f :     0.000030
      f+1     :     0.000016
      f-1     :     0.000001
      f+2     :     0.000002
      f-2     :     0.000001
      f+3     :     0.000008
      f-3     :    -0.000000
  2 F s       :     0.003197  s :     0.003197
      pz      :     0.071999  p :     0.067944
      px      :    -0.001617
      py      :    -0.002438
      dz2     :    -0.000075  d :     0.001478
      dxz     :     0.000200
      dyz     :     0.000628
      dx2y2   :     0.000133
      dxy     :     0.000593
      f0      :     0.000002  f :     0.000030
      f+1     :     0.000005
      f-1     :     0.000012
      f+2     :     0.000002
      f-2     :     0.000002
      f+3     :     0.000008
      f-3     :    -0.000000
  3 F s       :     0.003198  s :     0.003198
      pz      :     0.071999  p :     0.067945
      px      :    -0.001617
      py      :    -0.002438
      dz2     :    -0.000075  d :     0.001478
      dxz     :     0.000200
      dyz     :     0.000628
      dx2y2   :     0.000133
      dxy     :     0.000593
      f0      :     0.000002  f :     0.000030
      f+1     :     0.000005
      f-1     :     0.000012
      f+2     :     0.000002
      f-2     :     0.000002
      f+3     :     0.000008
      f-3     :    -0.000000


                     *******************************
                     * LOEWDIN POPULATION ANALYSIS *
                     *******************************

-------------------------------------------
LOEWDIN ATOMIC CHARGES AND SPIN POPULATIONS
-------------------------------------------
   0 C :   -0.345747    0.624486
   1 F :    0.115240    0.125187
   2 F :    0.115254    0.125164
   3 F :    0.115254    0.125164

----------------------------------------------------
LOEWDIN REDUCED ORBITAL CHARGES AND SPIN POPULATIONS
----------------------------------------------------
CHARGE
  0 C s       :     2.708195  s :     2.708195
      pz      :     0.804934  p :     2.165508
      px      :     0.680271
      py      :     0.680303
      dz2     :     0.172707  d :     1.192341
      dxz     :     0.213268
      dyz     :     0.213277
      dx2y2   :     0.296544
      dxy     :     0.296544
      f0      :     0.016077  f :     0.279703
      f+1     :     0.032939
      f-1     :     0.032939
      f+2     :     0.054686
      f-2     :     0.054688
      f+3     :     0.036090
      f-3     :     0.052284
  1 F s       :     3.552716  s :     3.552716
      pz      :     1.676904  p :     5.095996
      px      :     1.631175
      py      :     1.787917
      dz2     :     0.039869  d :     0.234035
      dxz     :     0.066174
      dyz     :     0.011143
      dx2y2   :     0.043445
      dxy     :     0.073404
      f0      :     0.000174  f :     0.002014
      f+1     :     0.000507
      f-1     :     0.000005
      f+2     :     0.000487
      f-2     :     0.000165
      f+3     :     0.000318
      f-3     :     0.000359
  2 F s       :     3.552715  s :     3.552715
      pz      :     1.676913  p :     5.095990
      px      :     1.748724
      py      :     1.670353
      dz2     :     0.039869  d :     0.234028
      dxz     :     0.024900
      dyz     :     0.052414
      dx2y2   :     0.065912
      dxy     :     0.050933
      f0      :     0.000174  f :     0.002014
      f+1     :     0.000130
      f-1     :     0.000381
      f+2     :     0.000245
      f-2     :     0.000406
      f+3     :     0.000318
      f-3     :     0.000359
  3 F s       :     3.552715  s :     3.552715
      pz      :     1.676913  p :     5.095990
      px      :     1.748724
      py      :     1.670353
      dz2     :     0.039869  d :     0.234028
      dxz     :     0.024900
      dyz     :     0.052414
      dx2y2   :     0.065912
      dxy     :     0.050933
      f0      :     0.000174  f :     0.002014
      f+1     :     0.000130
      f-1     :     0.000381
      f+2     :     0.000245
      f-2     :     0.000406
      f+3     :     0.000318
      f-3     :     0.000359

SPIN
  0 C s       :     0.157382  s :     0.157382
      pz      :     0.398669  p :     0.410171
      px      :     0.005747
      py      :     0.005755
      dz2     :     0.057396  d :     0.048775
      dxz     :    -0.003666
      dyz     :    -0.003667
      dx2y2   :    -0.000645
      dxy     :    -0.000642
      f0      :     0.001445  f :     0.008159
      f+1     :    -0.000220
      f-1     :    -0.000219
      f+2     :    -0.000182
      f-2     :    -0.000183
      f+3     :     0.007516
      f-3     :     0.000003
  1 F s       :     0.014856  s :     0.014856
      pz      :     0.076135  p :     0.081287
      px      :     0.005804
      py      :    -0.000653
      dz2     :     0.010305  d :     0.028726
      dxz     :     0.017558
      dyz     :    -0.000194
      dx2y2   :     0.001061
      dxy     :    -0.000003
      f0      :     0.000000  f :     0.000318
      f+1     :     0.000250
      f-1     :     0.000001
      f+2     :     0.000037
      f-2     :     0.000001
      f+3     :     0.000027
      f-3     :     0.000003
  2 F s       :     0.014856  s :     0.014856
      pz      :     0.076106  p :     0.081263
      px      :     0.000965
      py      :     0.004192
      dz2     :     0.010305  d :     0.028727
      dxz     :     0.004244
      dyz     :     0.013121
      dx2y2   :     0.000263
      dxy     :     0.000795
      f0      :     0.000000  f :     0.000318
      f+1     :     0.000063
      f-1     :     0.000188
      f+2     :     0.000010
      f-2     :     0.000028
      f+3     :     0.000027
      f-3     :     0.000003
  3 F s       :     0.014856  s :     0.014856
      pz      :     0.076106  p :     0.081263
      px      :     0.000965
      py      :     0.004192
      dz2     :     0.010305  d :     0.028727
      dxz     :     0.004244
      dyz     :     0.013121
      dx2y2   :     0.000263
      dxy     :     0.000795
      f0      :     0.000000  f :     0.000318
      f+1     :     0.000063
      f-1     :     0.000188
      f+2     :     0.000010
      f-2     :     0.000028
      f+3     :     0.000027
      f-3     :     0.000003


                      *****************************
                      * MAYER POPULATION ANALYSIS *
                      *****************************

  NA   - Mulliken gross atomic population
  ZA   - Total nuclear charge
  QA   - Mulliken gross atomic charge
  VA   - Mayer's total valence
  BVA  - Mayer's bonded valence
  FA   - Mayer's free valence

  ATOM       NA         ZA         QA         VA         BVA        FA
  0 C      5.4336     6.0000     0.5664     3.7967     3.1772     0.6195
  1 F      9.1888     9.0000    -0.1888     1.0330     1.0288     0.0042
  2 F      9.1888     9.0000    -0.1888     1.0327     1.0285     0.0042
  3 F      9.1888     9.0000    -0.1888     1.0327     1.0285     0.0042

  Mayer bond orders larger than 0.100000
B(  0-C ,  1-F ) :   1.0592 B(  0-C ,  2-F ) :   1.0590 B(  0-C ,  3-F ) :   1.0590 


-------
TIMINGS
-------

Total SCF time: 0 days 0 hours 0 min 14 sec 

Total time                  ....      14.010 sec
Sum of individual times     ....      12.914 sec  ( 92.2%)

Fock matrix formation       ....      10.401 sec  ( 74.2%)
  Split-RI-J                ....       2.612 sec  ( 25.1% of F)
  Chain of spheres X        ....       2.946 sec  ( 28.3% of F)
  XC integration            ....       1.920 sec  ( 18.5% of F)
    Basis function eval.    ....       0.110 sec  (  5.7% of XC)
    Density eval.           ....       0.145 sec  (  7.6% of XC)
    XC-Functional eval.     ....       0.063 sec  (  3.3% of XC)
    XC-Potential eval.      ....       0.292 sec  ( 15.2% of XC)
Diagonalization             ....       0.346 sec  (  2.5%)
Density matrix formation    ....       0.026 sec  (  0.2%)
Population analysis         ....       0.149 sec  (  1.1%)
Initial guess               ....       0.897 sec  (  6.4%)
Orbital Transformation      ....       0.000 sec  (  0.0%)
Orbital Orthonormalization  ....       0.000 sec  (  0.0%)
DIIS solution               ....       0.490 sec  (  3.5%)
Grid generation             ....       0.606 sec  (  4.3%)

Maximum memory used throughout the entire SCF-calculation: 63.2 MB


-------------------------------------------------------------------------------
                          DFT DISPERSION CORRECTION                            
                                                                               
                              DFTD3 V3.1  Rev 1                                
                              USING zero damping                               
-------------------------------------------------------------------------------
The omegaB97X-D3 functional is recognized. Fit by Chai et al.
Active option DFTDOPT                   ...         3   

molecular C6(AA) [au] = 165.555045 


            DFT-D V3
 parameters
 s6 scaling factor         :     1.0000 
 rs6 scaling factor        :     1.2810 
 s8 scaling factor         :     1.0000 
 rs8 scaling factor        :     1.0940 
 Damping factor alpha6     :    14.0000 
 Damping factor alpha8     :    16.0000 
 ad hoc parameters k1-k3   :    16.0000     1.3333    -4.0000 

 Edisp/kcal,au: -0.029837135141  -0.000047548496 
 E6   /kcal   :  -0.003784565 
 E8   /kcal   :  -0.026052570 
 % E8         :  87.315922718 

-------------------------   ----------------
Dispersion correction           -0.000047548
-------------------------   ----------------


-------------------------   --------------------
FINAL SINGLE POINT ENERGY      -337.599520322243
-------------------------   --------------------



           ************************************************************
           *        Program running with 18 parallel MPI-processes    *
           *              working on a common directory               *
           ************************************************************
------------------------------------------------------------------------------
                         ORCA SCF GRADIENT CALCULATION
------------------------------------------------------------------------------

 ... reading COSX grid (gridx3)
Gradient of the Kohn-Sham DFT energy:
Kohn-Sham wavefunction type      ... UKS
Hartree-Fock exchange scaling    ...    0.196
Number of operators              ...    2
Number of atoms                  ...    4
Basis set dimensions             ...  157
Integral neglect threshold       ... 2.5e-11
Integral primitive cutoff        ... 2.5e-12
SHARK Integral package           ... ON

Nuc. rep. gradient       (SHARK) ... done (  0.0 sec)
HCore & Overlap gradient (SHARK) ... done (  0.0 sec)
RI-J gradient            (SHARK) ... done (  0.3 sec)
COSX-gradient                    ... done (  0.4 sec)
Exchange-correlation gradient    ... done
Dispersion correction            ... done

------------------
CARTESIAN GRADIENT
------------------

WARNING: THERE ARE 3 CONSTRAINED CARTESIAN COORDINATES
   1   C   :   -0.000133137    0.000000167    0.106522898
   2   F   :   -0.055564494    0.000000070   -0.035787157
   3   F   :    0.027998884   -0.047771438   -0.035118425
   4   F   :    0.027998929    0.047771458   -0.035118378

Difference to translation invariance:
           :    0.0003001819    0.0000002570    0.0004989378

Difference to rotation invariance:
           :    0.0000000131    0.0009797516    0.0000002175

Norm of the cartesian gradient     ...    0.1559294178
RMS gradient                       ...    0.0450129457
MAX gradient                       ...    0.1065228976

-------
TIMINGS
-------

Total SCF gradient time            ...        1.336 sec

One electron gradient       ....       0.012 sec  (  0.9%)
RI-J Coulomb gradient       ....       0.342 sec  ( 25.6%)
COSX gradient               ....       0.448 sec  ( 33.5%)
XC gradient                 ....       0.166 sec  ( 12.4%)

Maximum memory used throughout the entire SCFGRAD-calculation: 37.2 MB
------------------------------------------------------------------------------
                         ORCA GEOMETRY RELAXATION STEP
------------------------------------------------------------------------------

Reading the OPT-File                    .... done
Getting information on internals        .... done
Copying old internal coords+grads       .... done
Making the new internal coordinates     .... (new redundants).... done
Validating the new internal coordinates .... (new redundants).... done
Calculating the B-matrix                .... done
Calculating the G,G- and P matrices     .... done
Transforming gradient to internals      .... done
Projecting the internal gradient        .... done
Number of atoms                         ....   4
Number of internal coordinates          ....   7
Current Energy                          ....  -337.599520322 Eh
Current gradient norm                   ....     0.155929418 Eh/bohr
Maximum allowed component of the step   ....  0.300
Current trust radius                    ....  0.300
Evaluating the initial hessian          ....  (Almloef) done
Projecting the Hessian                  .... done
Forming the augmented Hessian           .... done
Diagonalizing the augmented Hessian     .... done
Last element of RFO vector              ....  0.996605098
Lowest eigenvalues of augmented Hessian:
 -0.004706214  0.684895726  0.684895726  0.689601940 1000.000000000
Length of the computed step             ....  0.082610755
The final length of the internal step   ....  0.082610755
Converting the step to cartesian space:
 Initial RMS(Int)=    0.0312239307
Transforming coordinates:
 Iter   0:  RMS(Cart)=    0.0218712770 RMS(Int)=    0.0312239308
 Iter   1:  RMS(Cart)=    0.0000000004 RMS(Int)=    0.0000000007
Imposing constraints:
 Iter   0:  RMS(Cart)=    0.0000000007 RMS(Int)=    0.0000000009
CONVERGED
done
Storing new coordinates                 .... done

                                .--------------------.
          ----------------------|Geometry convergence|-------------------------
          Item                value                   Tolerance       Converged
          ---------------------------------------------------------------------
          RMS gradient        0.0215320831            0.0001000000      NO
          MAX gradient        0.0329806076            0.0003000000      NO
          RMS step            0.0312239307            0.0020000000      NO
          MAX step            0.0478255725            0.0040000000      NO
          ........................................................
          Max(Bonds)      0.0253      Max(Angles)    0.00
          Max(Dihed)        0.00      Max(Improp)    0.00
          ---------------------------------------------------------------------

The optimization has not yet converged - more geometry cycles are needed


    ---------------------------------------------------------------------------
                         Redundant Internal Coordinates
                            (Angstroem and degrees)

        Definition                    Value    dE/dq     Step     New-Value
    ----------------------------------------------------------------------------
     1. B(F   1,C   0)                1.3150 -0.032981  0.0253    1.3403   
     2. B(F   2,C   0)                1.3150 -0.032846  0.0252    1.3402   
     3. B(F   3,C   0)                1.3150 -0.032846  0.0252    1.3402   
     4. A(F   2,C   0,F   3)          100.50 -0.097258   -0.00    100.50 C 
     5. A(F   1,C   0,F   2)          100.50 -0.043741   -0.00    100.50 C 
     6. A(F   1,C   0,F   3)          100.50 -0.043741   -0.00    100.50 C 
     7. I(F   1,F   3,F   2,C   0)     73.44  0.087555    0.00     73.44   
    ----------------------------------------------------------------------------

         *************************************************************
         *                GEOMETRY OPTIMIZATION CYCLE   2            *
         *************************************************************
---------------------------------
CARTESIAN COORDINATES (ANGSTROEM)
---------------------------------
  C     -0.000031   -0.000000    0.008713
  F      1.189881   -0.000000   -0.608162
  F     -0.594925    1.030405   -0.608146
  F     -0.594925   -1.030405   -0.608146

----------------------------
CARTESIAN COORDINATES (A.U.)
----------------------------
  NO LB      ZA    FRAG     MASS         X           Y           Z
   0 C     6.0000    0    12.011   -0.000059   -0.000000    0.016464
   1 F     9.0000    0    18.998    2.248550   -0.000000   -1.149260
   2 F     9.0000    0    18.998   -1.124246    1.947184   -1.149229
   3 F     9.0000    0    18.998   -1.124246   -1.947184   -1.149229

--------------------------------
INTERNAL COORDINATES (ANGSTROEM)
--------------------------------
 C      0   0   0     0.000000000000     0.00000000     0.00000000
 F      1   0   0     1.340308202956     0.00000000     0.00000000
 F      1   2   0     1.340204788511   100.50000004     0.00000000
 F      1   2   3     1.340204730918   100.50000004   102.87624638

---------------------------
INTERNAL COORDINATES (A.U.)
---------------------------
 C      0   0   0     0.000000000000     0.00000000     0.00000000
 F      1   0   0     2.532815438636     0.00000000     0.00000000
 F      1   2   0     2.532620013656   100.50000004     0.00000000
 F      1   2   3     2.532619904820   100.50000004   102.87624638



           ************************************************************
           *        Program running with 18 parallel MPI-processes    *
           *              working on a common directory               *
           ************************************************************
------------------------------------------------------------------------------
                   ___                                                        
                  /   \      - P O W E R E D   B Y -                         
                 /     \                                                     
                 |  |  |   _    _      __       _____    __    __             
                 |  |  |  | |  | |    /  \     |  _  \  |  |  /  |          
                  \  \/   | |  | |   /    \    | | | |  |  | /  /          
                 / \  \   | |__| |  /  /\  \   | |_| |  |  |/  /          
                |  |  |   |  __  | /  /__\  \  |    /   |      \           
                |  |  |   | |  | | |   __   |  |    \   |  |\   \          
                \     /   | |  | | |  |  |  |  | |\  \  |  | \   \       
                 \___/    |_|  |_| |__|  |__|  |_| \__\ |__|  \__/        
                                                                              
                      - O R C A' S   B I G   F R I E N D -                    
                                      &                                       
                       - I N T E G R A L  F E E D E R -                       
                                                                              
 v1 FN, 2020, v2 2021                                                         
------------------------------------------------------------------------------


Reading SHARK input file /beegfs/scratch/ispackman/PFAS_EPR_calcs/benchmark/JChemEd_CF3_radical/CF3_radical_100.5_degrees_IN-PROGRESS/CF3_radical_100.5_degrees.SHARKINP.tmp ... ok
----------------------
SHARK INTEGRAL PACKAGE
----------------------

Number of atoms                             ...      4
Number of basis functions                   ...    157
Number of shells                            ...     55
Maximum angular momentum                    ...      3
Integral batch strategy                     ... SHARK/LIBINT Hybrid
RI-J (if used) integral strategy            ... SPLIT-RIJ (Revised 2003 algorithm where possible)
Printlevel                                  ...      1
Contraction scheme used                     ... SEGMENTED contraction
Coulomb Range Separation                    ... NOT USED
Exchange Range Separation                   ... Long Range
   Mu parameter                             ...  0.250000
   Scaling (regular/separated)              ...  0.195728  0.804272
Finite Nucleus Model                        ... NOT USED
Auxiliary Coulomb fitting basis             ... AVAILABLE
   # of basis functions in Aux-J            ...    196
   # of shells in Aux-J                     ...     60
   Maximum angular momentum in Aux-J        ...      4
Auxiliary J/K fitting basis                 ... NOT available
Auxiliary Correlation fitting basis         ... NOT available
Auxiliary 'external' fitting basis          ... NOT available
Integral threshold                          ...     2.500000e-11
Primitive cut-off                           ...     2.500000e-12
Primitive pair pre-selection threshold      ...     2.500000e-12

Calculating pre-screening integrals         ... done (  0.0 sec) Dimension = 55
Organizing shell pair data                  ... done (  0.0 sec)
Shell pair information
Total number of shell pairs                 ...      1540
Shell pairs after pre-screening             ...      1504
Total number of primitive shell pairs       ...      4274
Primitive shell pairs kept                  ...      3539
          la=0 lb=0:    282 shell pairs
          la=1 lb=0:    354 shell pairs
          la=1 lb=1:    120 shell pairs
          la=2 lb=0:    276 shell pairs
          la=2 lb=1:    180 shell pairs
          la=2 lb=2:     78 shell pairs
          la=3 lb=0:     96 shell pairs
          la=3 lb=1:     60 shell pairs
          la=3 lb=2:     48 shell pairs
          la=3 lb=3:     10 shell pairs

Calculating one electron integrals          ... done (  0.0 sec)
Calculating RI/J V-Matrix + Cholesky decomp.... done (  0.0 sec)
Calculating Nuclear repulsion               ... done (  0.0 sec) ENN=    126.359925502923 Eh

SHARK setup successfully completed in   0.3 seconds

Maximum memory used throughout the entire GTOINT-calculation: 15.2 MB


           ************************************************************
           *        Program running with 18 parallel MPI-processes    *
           *              working on a common directory               *
           ************************************************************

Diagonalization of the overlap matrix:
Smallest eigenvalue                        ... 4.052e-04
Time for diagonalization                   ...    0.008 sec
Threshold for overlap eigenvalues          ... 1.000e-08
Number of eigenvalues below threshold      ... 0
Time for construction of square roots      ...    0.030 sec
Total time needed                          ...    0.040 sec

-------------------
DFT GRID GENERATION
-------------------

General Integration Accuracy     IntAcc      ... 4.388
Radial Grid Type                 RadialGrid  ... OptM3 with GC (2021)
Angular Grid (max. ang.)         AngularGrid ... 4 (Lebedev-302)
Angular grid pruning method      GridPruning ... 4 (adaptive)
Weight generation scheme         WeightScheme... Becke
Basis function cutoff            BFCut       ... 1.0000e-11
Integration weight cutoff        WCut        ... 1.0000e-14
Angular grids for H and He will be reduced by one unit
Partially contracted basis set               ... off
Rotationally invariant grid construction     ... off

Total number of grid points                  ...    25783
Total number of batches                      ...      405
Average number of points per batch           ...       63
Average number of grid points per atom       ...     6446
Time for grid setup =    0.153 sec

--------------------
COSX GRID GENERATION
--------------------

GRIDX 1
-------
General Integration Accuracy     IntAcc      ... 3.816
Radial Grid Type                 RadialGrid  ... OptM3 with GC (2021)
Angular Grid (max. ang.)         AngularGrid ... 1 (Lebedev-50)
Angular grid pruning method      GridPruning ... 4 (adaptive)
Weight generation scheme         WeightScheme... Becke
Basis function cutoff            BFCut       ... 1.0000e-11
Integration weight cutoff        WCut        ... 1.0000e-14
Angular grids for H and He will be reduced by one unit
Partially contracted basis set               ... on
Rotationally invariant grid construction     ... off

Total number of grid points                  ...     3272
Total number of batches                      ...       53
Average number of points per batch           ...       61
Average number of grid points per atom       ...      818
UseSFitting                                  ... on

GRIDX 2
-------
General Integration Accuracy     IntAcc      ... 4.020
Radial Grid Type                 RadialGrid  ... OptM3 with GC (2021)
Angular Grid (max. ang.)         AngularGrid ... 2 (Lebedev-110)
Angular grid pruning method      GridPruning ... 4 (adaptive)
Weight generation scheme         WeightScheme... Becke
Basis function cutoff            BFCut       ... 1.0000e-11
Integration weight cutoff        WCut        ... 1.0000e-14
Angular grids for H and He will be reduced by one unit
Partially contracted basis set               ... on
Rotationally invariant grid construction     ... off

Total number of grid points                  ...     9122
Total number of batches                      ...      145
Average number of points per batch           ...       62
Average number of grid points per atom       ...     2280
UseSFitting                                  ... on

GRIDX 3
-------
General Integration Accuracy     IntAcc      ... 4.338
Radial Grid Type                 RadialGrid  ... OptM3 with GC (2021)
Angular Grid (max. ang.)         AngularGrid ... 3 (Lebedev-194)
Angular grid pruning method      GridPruning ... 4 (adaptive)
Weight generation scheme         WeightScheme... Becke
Basis function cutoff            BFCut       ... 1.0000e-11
Integration weight cutoff        WCut        ... 1.0000e-14
Angular grids for H and He will be reduced by one unit
Partially contracted basis set               ... on
Rotationally invariant grid construction     ... off

Total number of grid points                  ...    19678
Total number of batches                      ...      309
Average number of points per batch           ...       63
Average number of grid points per atom       ...     4920
UseSFitting                                  ... on

Time for X-Grid setup             =    0.401 sec

--------------
[...]
  VA   - Mayer's total valence
  BVA  - Mayer's bonded valence
  FA   - Mayer's free valence

  ATOM       NA         ZA         QA         VA         BVA        FA
  0 C      5.4602     6.0000     0.5398     3.7858     3.1753     0.6105
  1 F      9.1800     9.0000    -0.1800     1.0421     1.0373     0.0048
  2 F      9.1799     9.0000    -0.1799     1.0420     1.0372     0.0048
  3 F      9.1799     9.0000    -0.1799     1.0420     1.0372     0.0048

  Mayer bond orders larger than 0.100000
B(  0-C ,  1-F ) :   1.0585 B(  0-C ,  2-F ) :   1.0584 B(  0-C ,  3-F ) :   1.0584 


-------
TIMINGS
-------

Total SCF time: 0 days 0 hours 0 min 7 sec 

Total time                  ....       7.171 sec
Sum of individual times     ....       6.425 sec  ( 89.6%)

Fock matrix formation       ....       5.214 sec  ( 72.7%)
  Split-RI-J                ....       0.737 sec  ( 14.1% of F)
  Chain of spheres X        ....       2.041 sec  ( 39.2% of F)
  XC integration            ....       0.949 sec  ( 18.2% of F)
    Basis function eval.    ....       0.064 sec  (  6.7% of XC)
    Density eval.           ....       0.080 sec  (  8.4% of XC)
    XC-Functional eval.     ....       0.034 sec  (  3.6% of XC)
    XC-Potential eval.      ....       0.132 sec  ( 13.9% of XC)
Diagonalization             ....       0.187 sec  (  2.6%)
Density matrix formation    ....       0.009 sec  (  0.1%)
Population analysis         ....       0.160 sec  (  2.2%)
Initial guess               ....       0.016 sec  (  0.2%)
Orbital Transformation      ....       0.000 sec  (  0.0%)
Orbital Orthonormalization  ....       0.008 sec  (  0.1%)
DIIS solution               ....       0.246 sec  (  3.4%)
Grid generation             ....       0.593 sec  (  8.3%)

Maximum memory used throughout the entire SCF-calculation: 63.2 MB


-------------------------------------------------------------------------------
                          DFT DISPERSION CORRECTION                            
                                                                               
                              DFTD3 V3.1  Rev 1                                
                              USING zero damping                               
-------------------------------------------------------------------------------
The omegaB97X-D3 functional is recognized. Fit by Chai et al.
Active option DFTDOPT                   ...         3   

molecular C6(AA) [au] = 165.634841 


            DFT-D V3
 parameters
 s6 scaling factor         :     1.0000 
 rs6 scaling factor        :     1.2810 
 s8 scaling factor         :     1.0000 
 rs8 scaling factor        :     1.0940 
 Damping factor alpha6     :    14.0000 
 Damping factor alpha8     :    16.0000 
 ad hoc parameters k1-k3   :    16.0000     1.3333    -4.0000 

 Edisp/kcal,au: -0.035612402970  -0.000056751971 
 E6   /kcal   :  -0.004524197 
 E8   /kcal   :  -0.031088206 
 % E8         :  87.296007890 

-------------------------   ----------------
Dispersion correction           -0.000056752
-------------------------   ----------------


-------------------------   --------------------
FINAL SINGLE POINT ENERGY      -337.602135613242
-------------------------   --------------------

                                *** OPTIMIZATION RUN DONE ***

                            ***************************************
                            *     ORCA property calculations      *
                            ***************************************

                                    ---------------------
                                    Active property flags
                                    ---------------------
   (+) Dipole Moment


------------------------------------------------------------------------------
                       ORCA ELECTRIC PROPERTIES CALCULATION
------------------------------------------------------------------------------

Dipole Moment Calculation                       ... on
Quadrupole Moment Calculation                   ... off
Polarizability Calculation                      ... off
GBWName                                         ... /beegfs/scratch/ispackman/PFAS_EPR_calcs/benchmark/JChemEd_CF3_radical/CF3_radical_100.5_degrees_IN-PROGRESS/CF3_radical_100.5_degrees.gbw
Electron density                                ... /beegfs/scratch/ispackman/PFAS_EPR_calcs/benchmark/JChemEd_CF3_radical/CF3_radical_100.5_degrees_IN-PROGRESS/CF3_radical_100.5_degrees.scfp
The origin for moment calculation is the CENTER OF MASS  = ( 0.000013,  0.000000 -0.946627)

-------------
DIPOLE MOMENT
-------------
                                X             Y             Z
Electronic contribution:     -0.00045      -0.00000       0.10624
Nuclear contribution   :     -0.00004      -0.00000       0.29943
                        -----------------------------------------
Total Dipole Moment    :     -0.00050      -0.00000       0.40567
                        -----------------------------------------
Magnitude (a.u.)       :      0.40567
Magnitude (Debye)      :      1.03113



--------------------
Rotational spectrum 
--------------------
 
Rotational constants in cm-1:     0.379649     0.379572     0.207565 
Rotational constants in MHz : 11381.604651 11379.294032  6222.650711 

 Dipole components along the rotational axes: 
x,y,z [a.u.] :    -0.000512     0.000001     0.405668 
x,y,z [Debye]:    -0.001301     0.000002     1.031125 

 


           ************************************************************
           *        Program running with 18 parallel MPI-processes    *
           *              working on a common directory               *
           ************************************************************

-------------------------------------------------------------------------------
                               ORCA SCF HESSIAN
-------------------------------------------------------------------------------

                   --------- SHARK INITIALIZATION DONE ---------

Hessian of the Kohn-Sham DFT energy:
Kohn-Sham wavefunction type                      ... UKS
Hartree-Fock exchange scaling                    ...    0.196
Number of operators                              ...    2
Number of atoms                                  ...    4
Basis set dimensions                             ...  157
Integral neglect threshold                       ... 2.5e-11
Integral primitive cutoff                        ... 2.5e-12

Setting up DFT Hessian calculations              ... 

HESS GRID
---------

General Integration Accuracy     IntAcc      ... 4.629
Radial Grid Type                 RadialGrid  ... OptM3 with GC (2021)
Angular Grid (max. ang.)         AngularGrid ... 5 (Lebedev-434)
Angular grid pruning method      GridPruning ... 4 (adaptive)
Weight generation scheme         WeightScheme... Becke
Basis function cutoff            BFCut       ... 1.0000e-11
Integration weight cutoff        WCut        ... 1.0000e-14
Angular grids for H and He will be reduced by one unit
Partially contracted basis set               ... off
Rotationally invariant grid construction     ... off

Total number of grid points                  ...    39973
Total number of batches                      ...      625
Average number of points per batch           ...       63
Average number of grid points per atom       ...     9993

Building densities                               ... done   (      0.0 sec)
Calculating rho(r) on the grid                   ... done   (      0.1 sec)
Building xc-kernel on the grid                   ... done   (      0.1 sec)
                                                     done   (      0.6 sec)

Nuclear repulsion Hessian  (SHARK)               ... done   (      0.0 sec)

----------------------------------------------
Forming right-hand sides of CP-SCF equations     ...
----------------------------------------------
One electron integral derivatives  (SHARK)       ... done   (      0.0 sec)
Transforming the overlap derivative matrices     ... done   (      0.0 sec)
Making the Q(x) pseudodensities                  ... done   (      0.0 sec)
Adding the E*S(x)*S(y) terms to the Hessian      ... done   (      0.0 sec)
Calculating energy weighted overlap derivatives  ... done   (      0.0 sec)
Two electron integral derivatives (SHARK-RI)     ... done   (      2.5 sec)
Exchange-correlation integral derivatives        ... done   (      2.3 sec)
tr(F(y)Q(x)) contribution to the Hessian         ... done   (      0.0 sec)
Response fock operator R(S(x)) (SHARK-RIJCOSX)   ... done   (      0.9 sec)
XC Response fock operator R(S(x))                ... done   (      0.5 sec)
tr(F(y)S(x)) contribution to the Hessian         ... done   (      0.0 sec)
Transforming and finalizing RHSs                 ... done   (      0.1 sec)

----------------------------------------------
Solving the CP-SCF equations (RIJCOSX)           ...
----------------------------------------------
     CP-SCF ITERATION   0:   1.5995e-01 (   0.5 sec   0/ 12 done)
     CP-SCF ITERATION   1:   5.2321e-02 (   0.5 sec   0/ 12 done)
     CP-SCF ITERATION   2:   1.9385e-02 (   0.5 sec   0/ 12 done)
     CP-SCF ITERATION   3:   5.6156e-03 (   0.5 sec   0/ 12 done)
     CP-SCF ITERATION   4:   2.0710e-03 (   0.5 sec   0/ 12 done)
     CP-SCF ITERATION   5:   8.5798e-04 (   0.5 sec   1/ 12 done)
     CP-SCF ITERATION   6:   2.5660e-04 (   0.5 sec   3/ 12 done)
     CP-SCF ITERATION   7:   5.9269e-05 (   0.4 sec  12/ 12 done)
                    *** THE CP-SCF HAS CONVERGED ***

                                                 ... done   (      3.9 sec)
Forming perturbed density Hessian contributions  ... done   (      0.0 sec)
2nd integral derivative contribs (SHARK-RI)      ... done   (      6.6 sec)
Exchange-correlation Hessian                     ... done   (      0.9 sec)
Dispersion correction in the Hessian             ... done   (      0.1 sec)
Dipole derivatives                               ... (center of mass:  0.000013,  0.000000 -0.946627)done   (      0.1 sec)

Total SCF Hessian time: 0 days 0 hours 0 min 19 sec 

Writing the Hessian file to the disk             ... done


Maximum memory used throughout the entire SCFHESS-calculation: 144.9 MB

-----------------------
VIBRATIONAL FREQUENCIES
-----------------------

Scaling factor for frequencies =  1.000000000  (already applied!)

   0:         0.00 cm**-1
   1:         0.00 cm**-1
   2:         0.00 cm**-1
   3:         0.00 cm**-1
   4:         0.00 cm**-1
   5:         0.00 cm**-1
   6:       577.04 cm**-1
   7:       577.96 cm**-1
   8:       776.61 cm**-1
   9:      1078.53 cm**-1
  10:      1079.28 cm**-1
  11:      1098.69 cm**-1


------------
NORMAL MODES
------------

These modes are the Cartesian displacements weighted by the diagonal matrix
M(i,i)=1/sqrt(m[i]) where m[i] is the mass of the displaced atom
Thus, these vectors are normalized but *not* orthogonal

                  0          1          2          3          4          5    
      0       0.000000   0.000000   0.000000   0.000000   0.000000   0.000000
      1       0.000000   0.000000   0.000000   0.000000   0.000000   0.000000
      2       0.000000   0.000000   0.000000   0.000000   0.000000   0.000000
      3       0.000000   0.000000   0.000000   0.000000   0.000000   0.000000
      4       0.000000   0.000000   0.000000   0.000000   0.000000   0.000000
      5       0.000000   0.000000   0.000000   0.000000   0.000000   0.000000
      6       0.000000   0.000000   0.000000   0.000000   0.000000   0.000000
      7       0.000000   0.000000   0.000000   0.000000   0.000000   0.000000
      8       0.000000   0.000000   0.000000   0.000000   0.000000   0.000000
      9       0.000000   0.000000   0.000000   0.000000   0.000000   0.000000
     10       0.000000   0.000000   0.000000   0.000000   0.000000   0.000000
     11       0.000000   0.000000   0.000000   0.000000   0.000000   0.000000
                  6          7          8          9         10         11    
      0      -0.301746  -0.000016  -0.000273   0.884867  -0.000757  -0.020634
      1       0.000016  -0.301154  -0.000000  -0.000758  -0.885193  -0.000010
      2      -0.001145  -0.000000  -0.570478  -0.019068   0.000026  -0.834449
      3      -0.480573  -0.000026   0.459602  -0.328876   0.000284  -0.257116
      4      -0.000033   0.608323  -0.000000   0.000043   0.050028   0.000000
      5      -0.065680  -0.000003   0.120137   0.197366  -0.000171   0.171323
      6       0.335647   0.471939  -0.229715  -0.115381  -0.118120   0.135079
      7       0.472307  -0.208938   0.396499   0.113762   0.254712  -0.232229
      8       0.033205  -0.057001   0.120267  -0.092799  -0.167443   0.178116
      9       0.335698  -0.471903  -0.229715  -0.115178   0.118315   0.135082
     10      -0.472285  -0.208989  -0.396499  -0.113326   0.254901   0.232235
     11       0.033199   0.057004   0.120267  -0.092512   0.167598   0.178120


-----------
IR SPECTRUM
-----------

 Mode   freq       eps      Int      T**2         TX        TY        TZ
       cm**-1   L/(mol*cm) km/mol    a.u.
----------------------------------------------------------------------------
  6:    577.04   0.000296    1.50  0.000160  (-0.012649  0.000001 -0.000079)
  7:    577.96   0.000292    1.47  0.000157  (-0.000001 -0.012546 -0.000000)
  8:    776.61   0.002610   13.19  0.001049  (-0.000099 -0.000000 -0.032383)
  9:   1078.53   0.061297  309.77  0.017736  ( 0.133170 -0.000114 -0.001193)
 10:   1079.28   0.061284  309.70  0.017720  (-0.000114 -0.133115  0.000002)
 11:   1098.69   0.009322   47.11  0.002648  (-0.003004 -0.000002 -0.051368)

* The epsilon (eps) is given for a Dirac delta lineshape.
** The dipole moment derivative (T) already includes vibrational overlap.

The first frequency considered to be a vibration is 6
The total number of vibrations considered is 6


--------------------------
THERMOCHEMISTRY AT 298.15K
--------------------------

Temperature         ... 298.15 K
Pressure            ... 1.00 atm
Total Mass          ... 69.00 AMU

Throughout the following assumptions are being made:
  (1) The electronic state is orbitally nondegenerate
      but the spin degeneracy is treated
  (2) There are no thermally accessible electronically excited states
  (3) Hindered rotations indicated by low frequency modes are not
      treated as such but are treated as vibrations and this may
      cause some error
  (4) All equations used are the standard statistical mechanics
      equations for an ideal gas
  (5) All vibrations are strictly harmonic

freq.     577.04  E(vib)   ...       0.11 
freq.     577.96  E(vib)   ...       0.11 
freq.     776.61  E(vib)   ...       0.05 
freq.    1078.53  E(vib)   ...       0.02 
freq.    1079.28  E(vib)   ...       0.02 
freq.    1098.69  E(vib)   ...       0.02 

------------
INNER ENERGY
------------

The inner energy is: U= E(el) + E(ZPE) + E(vib) + E(rot) + E(trans)
    E(el)   - is the total energy from the electronic structure calculation
              = E(kin-el) + E(nuc-el) + E(el-el) + E(nuc-nuc)
    E(ZPE)  - the the zero temperature vibrational energy from the frequency calculation
    E(vib)  - the the finite temperature correction to E(ZPE) due to population
              of excited vibrational states
    E(rot)  - is the rotational thermal energy
    E(trans)- is the translational thermal energy

Summary of contributions to the inner energy U:
Electronic energy                ...   -337.60213561 Eh
Zero point energy                ...      0.01181940 Eh       7.42 kcal/mol
Thermal vibrational correction   ...      0.00051027 Eh       0.32 kcal/mol
Thermal rotational correction    ...      0.00141627 Eh       0.89 kcal/mol
Thermal translational correction ...      0.00141627 Eh       0.89 kcal/mol
-----------------------------------------------------------------------
Total thermal energy                   -337.58697340 Eh


Summary of corrections to the electronic energy:
(perhaps to be used in another calculation)
Total thermal correction                  0.00334281 Eh       2.10 kcal/mol
Non-thermal (ZPE) correction              0.01181940 Eh       7.42 kcal/mol
-----------------------------------------------------------------------
Total correction                          0.01516221 Eh       9.51 kcal/mol


--------
ENTHALPY
--------

The enthalpy is H = U + kB*T
                kB is Boltzmann's constant
Total free energy                 ...   -337.58697340 Eh 
Thermal Enthalpy correction       ...      0.00094421 Eh       0.59 kcal/mol
-----------------------------------------------------------------------
Total Enthalpy                    ...   -337.58602919 Eh


Note: Rotational entropy computed according to Herzberg 
Infrared and Raman Spectra, Chapter V,1, Van Nostrand Reinhold, 1945 
Point Group:  Cs, Symmetry Number:   1  
Rotational constants in cm-1:     0.379649     0.379572     0.207565 

Vibrational entropy computed according to the QRRHO of S. Grimme
Chem.Eur.J. 2012 18 9955


-------
ENTROPY
-------

The entropy contributions are T*S = T*(S(el)+S(vib)+S(rot)+S(trans))
     S(el)   - electronic entropy
     S(vib)  - vibrational entropy
     S(rot)  - rotational entropy
     S(trans)- translational entropy
The entropies will be listed as multiplied by the temperature to get
units of energy

Electronic entropy                ...      0.00065446 Eh      0.41 kcal/mol
Vibrational entropy               ...      0.00066863 Eh      0.42 kcal/mol
Rotational entropy                ...      0.01116762 Eh      7.01 kcal/mol
Translational entropy             ...      0.01834582 Eh     11.51 kcal/mol
-----------------------------------------------------------------------
Final entropy term                ...      0.03083653 Eh     19.35 kcal/mol

In case the symmetry of your molecule has not been determined correctly
or in case you have a reason to use a different symmetry number we print 
out the resulting rotational entropy values for sn=1,12 :
 --------------------------------------------------------
|  sn= 1 | S(rot)=       0.01116762 Eh      7.01 kcal/mol|
|  sn= 2 | S(rot)=       0.01051317 Eh      6.60 kcal/mol|
|  sn= 3 | S(rot)=       0.01013034 Eh      6.36 kcal/mol|
|  sn= 4 | S(rot)=       0.00985871 Eh      6.19 kcal/mol|
|  sn= 5 | S(rot)=       0.00964802 Eh      6.05 kcal/mol|
|  sn= 6 | S(rot)=       0.00947588 Eh      5.95 kcal/mol|
|  sn= 7 | S(rot)=       0.00933033 Eh      5.85 kcal/mol|
|  sn= 8 | S(rot)=       0.00920426 Eh      5.78 kcal/mol|
|  sn= 9 | S(rot)=       0.00909305 Eh      5.71 kcal/mol|
|  sn=10 | S(rot)=       0.00899357 Eh      5.64 kcal/mol|
|  sn=11 | S(rot)=       0.00890358 Eh      5.59 kcal/mol|
|  sn=12 | S(rot)=       0.00882142 Eh      5.54 kcal/mol|
 --------------------------------------------------------


-------------------
GIBBS FREE ENERGY
-------------------

The Gibbs free energy is G = H - T*S

Total enthalpy                    ...   -337.58602919 Eh 
Total entropy correction          ...     -0.03083653 Eh    -19.35 kcal/mol
-----------------------------------------------------------------------
Final Gibbs free energy         ...   -337.61686573 Eh

For completeness - the Gibbs free energy minus the electronic energy
G-E(el)                           ...     -0.01473011 Eh     -9.24 kcal/mol


Timings for individual modules:

Sum of individual times         ...      138.680 sec (=   2.311 min)
GTO integral calculation        ...       50.042 sec (=   0.834 min)  36.1 %
SCF iterations                  ...       54.184 sec (=   0.903 min)  39.1 %
SCF Gradient evaluation         ...       11.821 sec (=   0.197 min)   8.5 %
Geometry relaxation             ...        0.175 sec (=   0.003 min)   0.1 %
Analytical frequency calculation...       22.458 sec (=   0.374 min)  16.2 %
                             ****ORCA TERMINATED NORMALLY****
TOTAL RUN TIME: 0 days 0 hours 2 minutes 30 seconds 585 msec

slurmID:    32260041
totalRuntime[s]:    150.625202663
