
                                 *****************
                                 * O   R   C   A *
                                 *****************

                                            #,                                       
                                            ###                                      
                                            ####                                     
                                            #####                                    
                                            ######                                   
                                           ########,                                 
                                     ,,################,,,,,                         
                               ,,#################################,,                 
                          ,,##########################################,,             
                       ,#########################################, ''#####,          
                    ,#############################################,,   '####,        
                  ,##################################################,,,,####,       
                ,###########''''           ''''###############################       
              ,#####''   ,,,,##########,,,,          '''####'''          '####       
            ,##' ,,,,###########################,,,                        '##       
           ' ,,###''''                  '''############,,,                           
         ,,##''                                '''############,,,,        ,,,,,,###''
      ,#''                                            '''#######################'''  
     '                                                          ''''####''''         
             ,#######,   #######,   ,#######,      ##                                
            ,#'     '#,  ##    ##  ,#'     '#,    #''#        ######   ,####,        
            ##       ##  ##   ,#'  ##            #'  '#       #        #'  '#        
            ##       ##  #######   ##           ,######,      #####,   #    #        
            '#,     ,#'  ##    ##  '#,     ,#' ,#      #,         ##   #,  ,#        
             '#######'   ##     ##  '#######'  #'      '#     #####' # '####'        



                  #######################################################
                  #                        -***-                        #
                  #          Department of theory and spectroscopy      #
                  #    Directorship and core code : Frank Neese         #
                  #        Max Planck Institute fuer Kohlenforschung    #
                  #                Kaiser Wilhelm Platz 1               #
                  #                 D-45470 Muelheim/Ruhr               #
                  #                      Germany                        #
                  #                                                     #
                  #                  All rights reserved                #
                  #                        -***-                        #
                  #######################################################


                         Program Version 5.0.4 -  RELEASE  -


 With contributions from (in alphabetic order):
   Daniel Aravena         : Magnetic Suceptibility
   Michael Atanasov       : Ab Initio Ligand Field Theory (pilot matlab implementation)
   Alexander A. Auer      : GIAO ZORA, VPT2 properties, NMR spectrum
   Ute Becker             : Parallelization
   Giovanni Bistoni       : ED, misc. LED, open-shell LED, HFLD
   Martin Brehm           : Molecular dynamics
   Dmytro Bykov           : SCF Hessian
   Vijay G. Chilkuri      : MRCI spin determinant printing, contributions to CSF-ICE
   Dipayan Datta          : RHF DLPNO-CCSD density
   Achintya Kumar Dutta   : EOM-CC, STEOM-CC
   Dmitry Ganyushin       : Spin-Orbit,Spin-Spin,Magnetic field MRCI
   Miquel Garcia          : C-PCM and meta-GGA Hessian, CC/C-PCM, Gaussian charge scheme
   Yang Guo               : DLPNO-NEVPT2, F12-NEVPT2, CIM, IAO-localization
   Andreas Hansen         : Spin unrestricted coupled pair/coupled cluster methods
   Benjamin Helmich-Paris : MC-RPA, TRAH-SCF, COSX integrals
   Lee Huntington         : MR-EOM, pCC
   Robert Izsak           : Overlap fitted RIJCOSX, COSX-SCS-MP3, EOM
   Marcus Kettner         : VPT2
   Christian Kollmar      : KDIIS, OOCD, Brueckner-CCSD(T), CCSD density, CASPT2, CASPT2-K
   Simone Kossmann        : Meta GGA functionals, TD-DFT gradient, OOMP2, MP2 Hessian
   Martin Krupicka        : Initial AUTO-CI
   Lucas Lang             : DCDCAS
   Marvin Lechner         : AUTO-CI (C++ implementation), FIC-MRCC
   Dagmar Lenk            : GEPOL surface, SMD
   Dimitrios Liakos       : Extrapolation schemes; Compound Job, initial MDCI parallelization
   Dimitrios Manganas     : Further ROCIS development; embedding schemes
   Dimitrios Pantazis     : SARC Basis sets
   Anastasios Papadopoulos: AUTO-CI, single reference methods and gradients
   Taras Petrenko         : DFT Hessian,TD-DFT gradient, ASA, ECA, R-Raman, ABS, FL, XAS/XES, NRVS
   Peter Pinski           : DLPNO-MP2, DLPNO-MP2 Gradient
   Christoph Reimann      : Effective Core Potentials
   Marius Retegan         : Local ZFS, SOC
   Christoph Riplinger    : Optimizer, TS searches, QM/MM, DLPNO-CCSD(T), (RO)-DLPNO pert. Triples
   Tobias Risthaus        : Range-separated hybrids, TD-DFT gradient, RPA, STAB
   Michael Roemelt        : Original ROCIS implementation
   Masaaki Saitow         : Open-shell DLPNO-CCSD energy and density
   Barbara Sandhoefer     : DKH picture change effects
   Avijit Sen             : IP-ROCIS
   Kantharuban Sivalingam : CASSCF convergence, NEVPT2, FIC-MRCI
   Bernardo de Souza      : ESD, SOC TD-DFT
   Georgi Stoychev        : AutoAux, RI-MP2 NMR, DLPNO-MP2 response
   Willem Van den Heuvel  : Paramagnetic NMR
   Boris Wezisla          : Elementary symmetry handling
   Frank Wennmohs         : Technical directorship


 We gratefully acknowledge several colleagues who have allowed us to
 interface, adapt or use parts of their codes:
   Stefan Grimme, W. Hujo, H. Kruse, P. Pracht,  : VdW corrections, initial TS optimization,
                  C. Bannwarth, S. Ehlert          DFT functionals, gCP, sTDA/sTD-DF
   Ed Valeev, F. Pavosevic, A. Kumar             : LibInt (2-el integral package), F12 methods
   Garnet Chan, S. Sharma, J. Yang, R. Olivares  : DMRG
   Ulf Ekstrom                                   : XCFun DFT Library
   Mihaly Kallay                                 : mrcc  (arbitrary order and MRCC methods)
   Jiri Pittner, Ondrej Demel                    : Mk-CCSD
   Frank Weinhold                                : gennbo (NPA and NBO analysis)
   Christopher J. Cramer and Donald G. Truhlar   : smd solvation model
   Lars Goerigk                                  : TD-DFT with DH, B97 family of functionals
   V. Asgeirsson, H. Jonsson                     : NEB implementation
   FAccTs GmbH                                   : IRC, NEB, NEB-TS, DLPNO-Multilevel, CI-OPT
                                                   MM, QMMM, 2- and 3-layer-ONIOM, Crystal-QMMM,
                                                   LR-CPCM, SF, NACMEs, symmetry and pop. for TD-DFT,
                                                   nearIR, NL-DFT gradient (VV10), updates on ESD,
                                                   ML-optimized integration grids
   S Lehtola, MJT Oliveira, MAL Marques          : LibXC Library
   Liviu Ungur et al                             : ANISO software


 Your calculation uses the libint2 library for the computation of 2-el integrals
 For citations please refer to: http://libint.valeyev.net

 Your ORCA version has been built with support for libXC version: 5.1.0
 For citations please refer to: https://tddft.org/programs/libxc/

 This ORCA versions uses:
   CBLAS   interface :  Fast vector & matrix operations
   LAPACKE interface :  Fast linear algebra routines
   SCALAPACK package :  Parallel linear algebra routines
   Shared memory     :  Shared parallel matrices
   BLAS/LAPACK       :  OpenBLAS 0.3.15  USE64BITINT DYNAMIC_ARCH NO_AFFINITY SkylakeX SINGLE_THREADED
        Core in use  :  SkylakeX
   Copyright (c) 2011-2014, The OpenBLAS Project


Your calculation utilizes the atom-pairwise dispersion correction
with the zero-damping scheme (D30)
Cite in your paper:
S.Grimme, J.Antony, S.Ehrlich and H.Krieg, J.Chem.Phys., 132, (2010), 154104 
   

XCFun DFT library Copyright 2009-2010 Ulf Ekstrom and contributors.
See http://admol.org/xcfun for more information.
This is free software; see the source code for copying conditions.
There is ABSOLUTELY NO WARRANTY; not even for MERCHANTABILITY or FITNESS FOR A PARTICULAR PURPOSE.
For details see the documentation.
Scientific users of this library should cite U. Ekstrom, L. Visscher, R. Bast, A. J. Thorvaldsen and K. Ruud;
J.Chem.Theor.Comp. 2010, DOI: 10.1021/ct100117s
XCFun Version 0.99 

================================================================================

----- Orbital basis set information -----
Your calculation utilizes the basis: def2-TZVPD
   F. Weigend and R. Ahlrichs, Phys. Chem. Chem. Phys. 7, 3297 (2005).
   D. Rappoport and F. Furche, J. Chem. Phys. 133 134105 (2010).

----- AuxJ basis set information -----
Your calculation utilizes the auxiliary basis: def2/J
   F. Weigend, Phys. Chem. Chem. Phys. 8, 1057 (2006).

================================================================================
                                        WARNINGS
                       Please study these warnings very carefully!
================================================================================


WARNING: Geometry Optimization
  ===> : Switching off AutoStart
         For restart on a previous wavefunction, please use MOREAD

INFO   : the flag for use of the SHARK integral package has been found!

================================================================================
                                       INPUT FILE
================================================================================
NAME = /beegfs/scratch/ispackman/PFAS_EPR_calcs/benchmark/JChemEd_CF3_radical/CF3_radical_96.0_degrees_IN-PROGRESS/CF3_radical_96.0_degrees.inp
|  1> ! UKS TightSCF wB97x-D3 def2-TZVPD xyzfile opt freq
|  2> 
|  3> # CF3 radical 96.0 degrees fixed
|  4> 
|  5> %maxcore 1000
|  6> %pal
|  7> nprocs 18
|  8> end
|  9> 
| 10> %geom Constraints
| 11>         { A * 0 * C }
| 12>     end
| 13> end
| 14> * xyz 0 2
| 15> C 0.00 0.00 0.00
| 16> F 1.1284142950 0.0000000000 -0.6752082484
| 17> F -0.5642071475 0.9772354455 -0.6752082484
| 18> F -0.5642071475 -0.9772354455 -0.6752082484
| 19> **                         ****END OF INPUT****
================================================================================

                       *****************************
                       * Geometry Optimization Run *
                       *****************************

Geometry optimization settings:
Update method            Update   .... BFGS
Choice of coordinates    CoordSys .... Z-matrix Internals
Initial Hessian          InHess   .... Almoef's Model

Convergence Tolerances:
Energy Change            TolE     ....  5.0000e-06 Eh
Max. Gradient            TolMAXG  ....  3.0000e-04 Eh/bohr
RMS Gradient             TolRMSG  ....  1.0000e-04 Eh/bohr
Max. Displacement        TolMAXD  ....  4.0000e-03 bohr
RMS Displacement         TolRMSD  ....  2.0000e-03 bohr
Strict Convergence                ....  False
------------------------------------------------------------------------------
                        ORCA OPTIMIZATION COORDINATE SETUP
------------------------------------------------------------------------------

The optimization will be done in new redundant internal coordinates
Making redundant internal coordinates   ...  (new redundants) done
Evaluating the initial hessian          ...  (Almloef) done
Evaluating the coordinates              ...  done
Calculating the B-matrix                .... done
Calculating the G-matrix                .... done
Diagonalizing the G-matrix              .... done
Imposing constraints:
 Iter   0:  RMS(Cart)=    0.0000000000 RMS(Int)=    0.0000000000
CONVERGED
Will constrain atom 0 coordinate 1 
Will constrain atom 0 coordinate 2 
Will constrain atom 1 coordinate 2 
The first mode is                       ....    1
The number of degrees of freedom        ....    6
Storing new coordinates                 .... done

    -----------------------------------------------------------------
                    Redundant Internal Coordinates


    -----------------------------------------------------------------
         Definition                    Initial Value    Approx d2E/dq
    -----------------------------------------------------------------
      1. B(F   1,C   0)                  1.3150         0.684896   
      2. B(F   2,C   0)                  1.3150         0.684896   
      3. B(F   3,C   0)                  1.3150         0.684896   
      4. A(F   2,C   0,F   3)           96.0000         0.440101 C 
      5. A(F   1,C   0,F   2)           96.0000         0.440101 C 
      6. A(F   1,C   0,F   3)           96.0000         0.440101 C 
      7. I(F   1,F   3,F   2,C   0)     81.0127         0.002551   
    -----------------------------------------------------------------

Number of atoms                         .... 4
Number of degrees of freedom            .... 7

         *************************************************************
         *                GEOMETRY OPTIMIZATION CYCLE   1            *
         *************************************************************
---------------------------------
CARTESIAN COORDINATES (ANGSTROEM)
---------------------------------
  C      0.000000    0.000000    0.000000
  F      1.128414    0.000000   -0.675208
  F     -0.564207    0.977235   -0.675208
  F     -0.564207   -0.977235   -0.675208

----------------------------
CARTESIAN COORDINATES (A.U.)
----------------------------
  NO LB      ZA    FRAG     MASS         X           Y           Z
   0 C     6.0000    0    12.011    0.000000    0.000000    0.000000
   1 F     9.0000    0    18.998    2.132394    0.000000   -1.275959
   2 F     9.0000    0    18.998   -1.066197    1.846707   -1.275959
   3 F     9.0000    0    18.998   -1.066197   -1.846707   -1.275959

--------------------------------
INTERNAL COORDINATES (ANGSTROEM)
--------------------------------
 C      0   0   0     0.000000000000     0.00000000     0.00000000
 F      1   0   0     1.314999999950     0.00000000     0.00000000
 F      1   2   0     1.314999999977    96.00000000     0.00000000
 F      1   2   3     1.314999999977    96.00000000    96.70342344

---------------------------
INTERNAL COORDINATES (A.U.)
---------------------------
 C      0   0   0     0.000000000000     0.00000000     0.00000000
 F      1   0   0     2.484989866011     0.00000000     0.00000000
 F      1   2   0     2.484989866063    96.00000000     0.00000000
 F      1   2   3     2.484989866063    96.00000000    96.70342344

---------------------
BASIS SET INFORMATION
---------------------
There are 2 groups of distinct atoms

 Group   1 Type C   : 12s6p3d1f contracted to 6s3p3d1f pattern {621111/411/111/1}
 Group   2 Type F   : 12s7p3d1f contracted to 6s4p3d1f pattern {621111/4111/111/1}

Atom   0C    basis set group =>   1
Atom   1F    basis set group =>   2
Atom   2F    basis set group =>   2
Atom   3F    basis set group =>   2
---------------------------------
AUXILIARY/J BASIS SET INFORMATION
---------------------------------
There are 2 groups of distinct atoms

 Group   1 Type C   : 12s5p4d2f1g contracted to 6s4p3d1f1g pattern {711111/2111/211/2/1}
 Group   2 Type F   : 12s5p4d2f1g contracted to 6s4p3d1f1g pattern {711111/2111/211/2/1}

Atom   0C    basis set group =>   1
Atom   1F    basis set group =>   2
Atom   2F    basis set group =>   2
Atom   3F    basis set group =>   2


           ************************************************************
           *        Program running with 18 parallel MPI-processes    *
           *              working on a common directory               *
           ************************************************************
------------------------------------------------------------------------------
                           ORCA GTO INTEGRAL CALCULATION
                           -- RI-GTO INTEGRALS CHOSEN --
------------------------------------------------------------------------------
------------------------------------------------------------------------------
                   ___                                                        
                  /   \      - P O W E R E D   B Y -                         
                 /     \                                                     
                 |  |  |   _    _      __       _____    __    __             
                 |  |  |  | |  | |    /  \     |  _  \  |  |  /  |          
                  \  \/   | |  | |   /    \    | | | |  |  | /  /          
                 / \  \   | |__| |  /  /\  \   | |_| |  |  |/  /          
                |  |  |   |  __  | /  /__\  \  |    /   |      \           
                |  |  |   | |  | | |   __   |  |    \   |  |\   \          
                \     /   | |  | | |  |  |  |  | |\  \  |  | \   \       
                 \___/    |_|  |_| |__|  |__|  |_| \__\ |__|  \__/        
                                                                              
                      - O R C A' S   B I G   F R I E N D -                    
                                      &                                       
                       - I N T E G R A L  F E E D E R -                       
                                                                              
 v1 FN, 2020, v2 2021                                                         
------------------------------------------------------------------------------


Reading SHARK input file /beegfs/scratch/ispackman/PFAS_EPR_calcs/benchmark/JChemEd_CF3_radical/CF3_radical_96.0_degrees_IN-PROGRESS/CF3_radical_96.0_degrees.SHARKINP.tmp ... ok
----------------------
SHARK INTEGRAL PACKAGE
----------------------

Number of atoms                             ...      4
Number of basis functions                   ...    157
Number of shells                            ...     55
Maximum angular momentum                    ...      3
Integral batch strategy                     ... SHARK/LIBINT Hybrid
RI-J (if used) integral strategy            ... SPLIT-RIJ (Revised 2003 algorithm where possible)
Printlevel                                  ...      1
Contraction scheme used                     ... SEGMENTED contraction
Coulomb Range Separation                    ... NOT USED
Exchange Range Separation                   ... Long Range
   Mu parameter                             ...  0.250000
   Scaling (regular/separated)              ...  0.195728  0.804272
Finite Nucleus Model                        ... NOT USED
Auxiliary Coulomb fitting basis             ... AVAILABLE
   # of basis functions in Aux-J            ...    196
   # of shells in Aux-J                     ...     60
   Maximum angular momentum in Aux-J        ...      4
Auxiliary J/K fitting basis                 ... NOT available
Auxiliary Correlation fitting basis         ... NOT available
Auxiliary 'external' fitting basis          ... NOT available
Integral threshold                          ...     2.500000e-11
Primitive cut-off                           ...     2.500000e-12
Primitive pair pre-selection threshold      ...     2.500000e-12

Calculating pre-screening integrals         ... done (  0.0 sec) Dimension = 55
Organizing shell pair data                  ... done (  0.0 sec)
Shell pair information
Total number of shell pairs                 ...      1540
Shell pairs after pre-screening             ...      1516
Total number of primitive shell pairs       ...      4274
Primitive shell pairs kept                  ...      3587
          la=0 lb=0:    282 shell pairs
          la=1 lb=0:    360 shell pairs
          la=1 lb=1:    120 shell pairs
          la=2 lb=0:    282 shell pairs
          la=2 lb=1:    180 shell pairs
          la=2 lb=2:     78 shell pairs
          la=3 lb=0:     96 shell pairs
          la=3 lb=1:     60 shell pairs
          la=3 lb=2:     48 shell pairs
          la=3 lb=3:     10 shell pairs

Calculating one electron integrals          ... done (  0.0 sec)
Calculating RI/J V-Matrix + Cholesky decomp.... done (  0.0 sec)
Calculating Nuclear repulsion               ... done (  0.0 sec) ENN=    130.984186734191 Eh

SHARK setup successfully completed in   0.3 seconds

Maximum memory used throughout the entire GTOINT-calculation: 15.2 MB


           ************************************************************
           *        Program running with 18 parallel MPI-processes    *
           *              working on a common directory               *
           ************************************************************
-------------------------------------------------------------------------------
                                 ORCA SCF
-------------------------------------------------------------------------------

------------
SCF SETTINGS
------------
Hamiltonian:
 Density Functional     Method          .... DFT(GTOs)
 Exchange Functional    Exchange        .... WB97X-D3
 Correlation Functional Correlation     .... WB97X-D3
 Gradients option       PostSCFGGA      .... off
 Hybrid DFT is turned on
   Fraction HF Exchange ScalHFX         ....  0.195728
   Scaling of DF-GGA-X  ScalDFX         ....  0.000000
   Scaling of DF-GGA-C  ScalDFC         ....  1.000000
   Scaling of DF-LDA-C  ScalLDAC        ....  1.000000
   Perturbative correction              ....  0.000000
   Density functional embedding theory  .... OFF
 Long-range corrected/Screened/Range-Separated Hybrid DFT is turned on
   Amount of maximum screened exact exchange              ....  0.804272
   Range separation parameter mu (erf(mu*r12)/r12)        ....  0.250000
 RI-approximation to the Coulomb term is turned on
   Number of AuxJ basis functions       .... 196
   RIJ-COSX (HFX calculated with COS-X)).... on


General Settings:
 Integral files         IntName         .... /beegfs/scratch/ispackman/PFAS_EPR_calcs/benchmark/JChemEd_CF3_radical/CF3_radical_96.0_degrees_IN-PROGRESS/CF3_radical_96.0_degrees
 Hartree-Fock type      HFTyp           .... UHF
 Total Charge           Charge          ....    0
 Multiplicity           Mult            ....    2
 Number of Electrons    NEL             ....   33
 Basis Dimension        Dim             ....  157
 Nuclear Repulsion      ENuc            ....    130.9841867342 Eh

Convergence Acceleration:
 DIIS                   CNVDIIS         .... on
   Start iteration      DIISMaxIt       ....    12
   Startup error        DIISStart       ....  0.200000
   # of expansion vecs  DIISMaxEq       ....     5
   Bias factor          DIISBfac        ....   1.050
   Max. coefficient     DIISMaxC        ....  10.000
 Trust-Rad. Augm. Hess. CNVTRAH         .... auto
   Auto Start mean grad. ratio tolernc. ....  1.125000
   Auto Start start iteration           ....    20
   Auto Start num. interpolation iter.  ....    10
   Max. Number of Micro iterations      ....    16
   Max. Number of Macro iterations      .... Maxiter - #DIIS iter
   Number of Davidson start vectors     ....     2
   Converg. threshold I  (grad. norm)   ....   1.000e-05
   Converg. threshold II (energy diff.) ....   1.000e-08
   Grad. Scal. Fac. for Micro threshold ....   0.100
   Minimum threshold for Micro iter.    ....   0.010
   NR start threshold (gradient norm)   ....   0.001
   Initial trust radius                 ....   0.400
   Minimum AH scaling param. (alpha)    ....   1.000
   Maximum AH scaling param. (alpha)    .... 1000.000
   Orbital update algorithm             .... Taylor
   White noise on init. David. guess    .... on
   Maximum white noise                  ....   0.010
   Quad. conv. algorithm                .... NR
 SOSCF                  CNVSOSCF        .... off
 Level Shifting         CNVShift        .... on
   Level shift para.    LevelShift      ....    0.2500
   Turn off err/grad.   ShiftErr        ....    0.0010
 Zerner damping         CNVZerner       .... off
 Static damping         CNVDamp         .... on
   Fraction old density DampFac         ....    0.7000
   Max. Damping (<1)    DampMax         ....    0.9800
   Min. Damping (>=0)   DampMin         ....    0.0000
   Turn off err/grad.   DampErr         ....    0.1000
 Fernandez-Rico         CNVRico         .... off

SCF Procedure:
 Maximum # iterations   MaxIter         ....   125
 SCF integral mode      SCFMode         .... Direct
   Integral package                     .... SHARK and LIBINT hybrid scheme
 Reset frequency        DirectResetFreq ....    20
 Integral Threshold     Thresh          ....  2.500e-11 Eh
 Primitive CutOff       TCut            ....  2.500e-12 Eh

Convergence Tolerance:
 Convergence Check Mode ConvCheckMode   .... Total+1el-Energy
 Convergence forced     ConvForced      .... 0
 Energy Change          TolE            ....  1.000e-08 Eh
 1-El. energy change                    ....  1.000e-05 Eh
 DIIS Error             TolErr          ....  5.000e-07


Diagonalization of the overlap matrix:
Smallest eigenvalue                        ... 3.489e-04
Time for diagonalization                   ...    0.007 sec
Threshold for overlap eigenvalues          ... 1.000e-08
Number of eigenvalues below threshold      ... 0
Time for construction of square roots      ...    0.015 sec
Total time needed                          ...    0.023 sec

Time for model grid setup =    0.060 sec

------------------------------
INITIAL GUESS: MODEL POTENTIAL
------------------------------
Loading Hartree-Fock densities                     ... done
Calculating cut-offs                               ... done
Initializing the effective Hamiltonian             ... done
Setting up the integral package (SHARK)            ... done
Starting the Coulomb interaction                   ... done (   0.1 sec)
Reading the grid                                   ... done
Mapping shells                                     ... done
Starting the XC term evaluation                    ... done (   0.0 sec)
  promolecular density results
     # of electrons  =     33.000109591
     EX              =    -35.108617804
     EC              =     -1.150612463
     EX+EC           =    -36.259230267
Transforming the Hamiltonian                       ... done (   0.0 sec)
Diagonalizing the Hamiltonian                      ... done (   0.0 sec)
Back transforming the eigenvectors                 ... done (   0.0 sec)
Now organizing SCF variables                       ... done
                      ------------------
                      INITIAL GUESS DONE (   0.2 sec)
                      ------------------
-------------------
DFT GRID GENERATION
-------------------

General Integration Accuracy     IntAcc      ... 4.388
Radial Grid Type                 RadialGrid  ... OptM3 with GC (2021)
Angular Grid (max. ang.)         AngularGrid ... 4 (Lebedev-302)
Angular grid pruning method      GridPruning ... 4 (adaptive)
Weight generation scheme         WeightScheme... Becke
Basis function cutoff            BFCut       ... 1.0000e-11
Integration weight cutoff        WCut        ... 1.0000e-14
Angular grids for H and He will be reduced by one unit
Partially contracted basis set               ... off
Rotationally invariant grid construction     ... off

Total number of grid points                  ...    25773
Total number of batches                      ...      404
Average number of points per batch           ...       63
Average number of grid points per atom       ...     6443
Time for grid setup =    0.145 sec

--------------------
COSX GRID GENERATION
--------------------

GRIDX 1
-------
General Integration Accuracy     IntAcc      ... 3.816
Radial Grid Type                 RadialGrid  ... OptM3 with GC (2021)
Angular Grid (max. ang.)         AngularGrid ... 1 (Lebedev-50)
Angular grid pruning method      GridPruning ... 4 (adaptive)
Weight generation scheme         WeightScheme... Becke
Basis function cutoff            BFCut       ... 1.0000e-11
Integration weight cutoff        WCut        ... 1.0000e-14
Angular grids for H and He will be reduced by one unit
Partially contracted basis set               ... on
Rotationally invariant grid construction     ... off

Total number of grid points                  ...     3274
Total number of batches                      ...       53
Average number of points per batch           ...       61
Average number of grid points per atom       ...      818
UseSFitting                                  ... on

GRIDX 2
-------
General Integration Accuracy     IntAcc      ... 4.020
Radial Grid Type                 RadialGrid  ... OptM3 with GC (2021)
Angular Grid (max. ang.)         AngularGrid ... 2 (Lebedev-110)
Angular grid pruning method      GridPruning ... 4 (adaptive)
Weight generation scheme         WeightScheme... Becke
Basis function cutoff            BFCut       ... 1.0000e-11
Integration weight cutoff        WCut        ... 1.0000e-14
Angular grids for H and He will be reduced by one unit
Partially contracted basis set               ... on
Rotationally invariant grid construction     ... off

Total number of grid points                  ...     9141
Total number of batches                      ...      146
Average number of points per batch           ...       62
Average number of grid points per atom       ...     2285
UseSFitting                                  ... on

GRIDX 3
-------
General Integration Accuracy     IntAcc      ... 4.338
Radial Grid Type                 RadialGrid  ... OptM3 with GC (2021)
Angular Grid (max. ang.)         AngularGrid ... 3 (Lebedev-194)
Angular grid pruning method      GridPruning ... 4 (adaptive)
Weight generation scheme         WeightScheme... Becke
Basis function cutoff            BFCut       ... 1.0000e-11
Integration weight cutoff        WCut        ... 1.0000e-14
Angular grids for H and He will be reduced by one unit
Partially contracted basis set               ... on
Rotationally invariant grid construction     ... off

Total number of grid points                  ...    19687
Total number of batches                      ...      309
Average number of points per batch           ...       63
Average number of grid points per atom       ...     4922
UseSFitting                                  ... on

Time for X-Grid setup             =    0.371 sec

--------------
SCF ITERATIONS
--------------
ITER       Energy         Delta-E        Max-DP      RMS-DP      [F,P]     Damp
               ***  Starting incremental Fock matrix formation  ***
  0   -337.4939930150   0.000000000000 0.02087050  0.00043404  0.0739835 0.7000
  1   -337.5263784604  -0.032385445437 0.01143743  0.00028539  0.0347673 0.7000
                               ***Turning on DIIS***
  2   -337.5396195840  -0.013241123606 0.02745885  0.00053054  0.0171727 0.0000
  3   -337.5628864552  -0.023266871234 0.00689367  0.00016012  0.0152769 0.0000
  4   -337.5667243410  -0.003837885791 0.00482127  0.00007709  0.0034191 0.0000
  5   -337.5669322355  -0.000207894475 0.00284483  0.00004495  0.0019416 0.0000
  6   -337.5669938311  -0.000061595568 0.00219629  0.00004008  0.0008449 0.0000
               *** Restarting incremental Fock matrix formation ***
                                   *** Resetting DIIS ***
  7   -337.5670185086  -0.000024677530 0.00044585  0.00000713  0.0001986 0.0000
  8   -337.5670194500  -0.000000941386 0.00007231  0.00000214  0.0001095 0.0000
  9   -337.5670196845  -0.000000234557 0.00007799  0.00000178  0.0001051 0.0000
 10   -337.5670198203  -0.000000135732 0.00004962  0.00000061  0.0000131 0.0000
 11   -337.5670198229  -0.000000002616 0.00001212  0.00000014  0.0000023 0.0000
                            ***DIIS convergence achieved***

               *****************************************************
               *                     SUCCESS                       *
               *           SCF CONVERGED AFTER  12 CYCLES          *
               *****************************************************

Old exchange energy                            =    -10.545575976 Eh
New exchange energy                            =    -10.545574136 Eh
Exchange energy change after final integration =      0.000001840 Eh
Total energy after final integration           =   -337.567017984 Eh
Final COS-X integration done in                =     0.417 sec

----------------
TOTAL SCF ENERGY
----------------

Total Energy       :         -337.56701798 Eh           -9185.66555 eV

Components:
Nuclear Repulsion  :          130.98418673 Eh            3564.26092 eV
Electronic Energy  :         -468.55120472 Eh          -12749.92647 eV
One Electron Energy:         -728.97765581 Eh          -19836.49048 eV
Two Electron Energy:          260.42645109 Eh            7086.56401 eV
Max COSX asymmetry :            0.00000043 Eh               0.00001 eV

Virial components:
Potential Energy   :         -674.51759096 Eh          -18354.55678 eV
Kinetic Energy     :          336.95057297 Eh            9168.89123 eV
Virial Ratio       :            2.00182948


DFT components:
N(Alpha)           :       16.999877643547 electrons
N(Beta)            :       15.999882929921 electrons
N(Total)           :       32.999760573468 electrons
E(XC)              :      -26.230326009729 Eh       
DFET-embed. en.    :        0.000000000000 Eh       

---------------
SCF CONVERGENCE
---------------

  Last Energy change         ...   -1.1935e-09  Tolerance :   1.0000e-08
  Last MAX-Density change    ...    0.0000e+00  Tolerance :   1.0000e-07
  Last RMS-Density change    ...    0.0000e+00  Tolerance :   5.0000e-09
  Last DIIS Error            ...    8.1719e-07  Tolerance :   5.0000e-07

             **** THE GBW FILE WAS UPDATED (/beegfs/scratch/ispackman/PFAS_EPR_calcs/benchmark/JChemEd_CF3_radical/CF3_radical_96.0_degrees_IN-PROGRESS/CF3_radical_96.0_degrees.gbw) ****
             **** DENSITY /beegfs/scratch/ispackman/PFAS_EPR_calcs/benchmark/JChemEd_CF3_radical/CF3_radical_96.0_degrees_IN-PROGRESS/CF3_radical_96.0_degrees.scfp WAS UPDATED ****
             **** ENERGY FILE WAS UPDATED (/beegfs/scratch/ispackman/PFAS_EPR_calcs/benchmark/JChemEd_CF3_radical/CF3_radical_96.0_degrees_IN-PROGRESS/CF3_radical_96.0_degrees.en.tmp) ****
----------------------
UHF SPIN CONTAMINATION
----------------------

Warning: in a DFT calculation there is little theoretical justification to 
         calculate <S**2> as in Hartree-Fock theory. We will do it anyways
         but you should keep in mind that the values have only limited relevance

Expectation value of <S**2>     :     0.752276
Ideal value S*(S+1) for S=0.5   :     0.750000
Deviation                       :     0.002276

             **** THE GBW FILE WAS UPDATED (/beegfs/scratch/ispackman/PFAS_EPR_calcs/benchmark/JChemEd_CF3_radical/CF3_radical_96.0_degrees_IN-PROGRESS/CF3_radical_96.0_degrees.gbw) ****
             **** DENSITY /beegfs/scratch/ispackman/PFAS_EPR_calcs/benchmark/JChemEd_CF3_radical/CF3_radical_96.0_degrees_IN-PROGRESS/CF3_radical_96.0_degrees.scfp WAS UPDATED ****
----------------
ORBITAL ENERGIES
----------------
                 SPIN UP ORBITALS
  NO   OCC          E(Eh)            E(eV) 
   0   1.0000     -24.831119      -675.6891 
   1   1.0000     -24.831104      -675.6887 
   2   1.0000     -24.831102      -675.6886 
   3   1.0000     -10.554789      -287.2104 
   4   1.0000      -1.493440       -40.6386 
   5   1.0000      -1.357052       -36.9273 
   6   1.0000      -1.357048       -36.9271 
   7   1.0000      -0.838021       -22.8037 
   8   1.0000      -0.719565       -19.5804 
   9   1.0000      -0.719560       -19.5802 
  10   1.0000      -0.711625       -19.3643 
  11   1.0000      -0.605008       -16.4631 
  12   1.0000      -0.605000       -16.4629 
  13   1.0000      -0.529337       -14.4040 
  14   1.0000      -0.529331       -14.4038 
  15   1.0000      -0.511958       -13.9311 
  16   1.0000      -0.453781       -12.3480 
  17   0.0000       0.072391         1.9698 
  18   0.0000       0.104457         2.8424 
  19   0.0000       0.104457         2.8424 
  20   0.0000       0.111470         3.0332 
  21   0.0000       0.157002         4.2722 
  22   0.0000       0.157002         4.2722 
  23   0.0000       0.173631         4.7247 
  24   0.0000       0.173633         4.7248 
  25   0.0000       0.194091         5.2815 
  26   0.0000       0.203177         5.5287 
  27   0.0000       0.203183         5.5289 
  28   0.0000       0.241802         6.5798 
  29   0.0000       0.283695         7.7197 
  30   0.0000       0.344748         9.3811 
  31   0.0000       0.344752         9.3812 
  32   0.0000       0.356144         9.6912 
  33   0.0000       0.378116        10.2891 
  34   0.0000       0.378118        10.2891 
  35   0.0000       0.402600        10.9553 
  36   0.0000       0.402602        10.9554 
  37   0.0000       0.406680        11.0663 
  38   0.0000       0.442192        12.0327 
  39   0.0000       0.485243        13.2041 
  40   0.0000       0.485249        13.2043 
  41   0.0000       0.539232        14.6733 
  42   0.0000       0.578734        15.7482 
  43   0.0000       0.625597        17.0233 
  44   0.0000       0.625599        17.0234 
  45   0.0000       0.706506        19.2250 
  46   0.0000       0.706514        19.2252 
  47   0.0000       0.707361        19.2483 
  48   0.0000       0.728443        19.8219 
  49   0.0000       0.747080        20.3291 
  50   0.0000       0.747085        20.3292 
  51   0.0000       0.775540        21.1035 
  52   0.0000       0.793539        21.5933 
  53   0.0000       0.793539        21.5933 
  54   0.0000       0.862397        23.4670 
  55   0.0000       0.904699        24.6181 
  56   0.0000       0.904700        24.6181 
  57   0.0000       0.931053        25.3352 
  58   0.0000       0.978365        26.6227 
  59   0.0000       0.978368        26.6228 
  60   0.0000       1.081748        29.4359 
  61   0.0000       1.081749        29.4359 
  62   0.0000       1.120015        30.4772 
  63   0.0000       1.156861        31.4798 
  64   0.0000       1.156879        31.4803 
  65   0.0000       1.172998        31.9189 
  66   0.0000       1.254601        34.1394 
  67   0.0000       1.254601        34.1394 
  68   0.0000       1.259654        34.2769 
  69   0.0000       1.294792        35.2331 
  70   0.0000       1.294792        35.2331 
  71   0.0000       1.358226        36.9592 
  72   0.0000       1.473758        40.1030 
  73   0.0000       1.473772        40.1034 
  74   0.0000       1.642469        44.6938 
  75   0.0000       2.118326        57.6426 
  76   0.0000       2.159977        58.7760 
  77   0.0000       2.159996        58.7765 
  78   0.0000       2.204352        59.9835 
  79   0.0000       2.207111        60.0586 
  80   0.0000       2.207136        60.0592 
  81   0.0000       2.211338        60.1736 
  82   0.0000       2.338109        63.6232 
  83   0.0000       2.338121        63.6235 
  84   0.0000       2.467027        67.1312 
  85   0.0000       2.467032        67.1314 
  86   0.0000       2.481799        67.5332 
  87   0.0000       2.606337        70.9220 
  88   0.0000       2.606343        70.9222 
  89   0.0000       2.893792        78.7441 
  90   0.0000       2.927386        79.6582 
  91   0.0000       2.927409        79.6588 
  92   0.0000       2.988967        81.3339 
  93   0.0000       3.020639        82.1958 
  94   0.0000       3.172885        86.3386 
  95   0.0000       3.172962        86.3407 
  96   0.0000       3.194303        86.9214 
  97   0.0000       3.290541        89.5402 
  98   0.0000       3.290610        89.5421 
  99   0.0000       3.403573        92.6159 
 100   0.0000       3.403588        92.6163 
 101   0.0000       3.439056        93.5815 
 102   0.0000       3.654153        99.4346 
 103   0.0000       3.654176        99.4352 
 104   0.0000       3.655690        99.4764 
 105   0.0000       3.807166       103.5983 
 106   0.0000       3.935448       107.0890 
 107   0.0000       3.935483       107.0899 
 108   0.0000       3.967747       107.9679 
 109   0.0000       4.113276       111.9279 
 110   0.0000       4.113299       111.9286 
 111   0.0000       4.236218       115.2733 
 112   0.0000       4.344578       118.2220 
 113   0.0000       4.344613       118.2229 
 114   0.0000       5.404486       147.0635 
 115   0.0000       5.404515       147.0643 
 116   0.0000       5.588203       152.0627 
 117   0.0000       6.913864       188.1358 
 118   0.0000       6.913883       188.1363 
 119   0.0000       6.921190       188.3352 
 120   0.0000       6.935420       188.7224 
 121   0.0000       6.935429       188.7226 
 122   0.0000       6.936964       188.7644 
 123   0.0000       6.942487       188.9147 
 124   0.0000       6.942511       188.9153 
 125   0.0000       6.970652       189.6811 
 126   0.0000       7.055830       191.9989 
 127   0.0000       7.055881       192.0003 
 128   0.0000       7.182839       195.4550 
 129   0.0000       7.244098       197.1219 
 130   0.0000       7.244108       197.1222 
 131   0.0000       7.269879       197.8235 
 132   0.0000       7.429783       202.1747 
 133   0.0000       7.518609       204.5918 
 134   0.0000       7.647679       208.1039 
 135   0.0000       7.647722       208.1051 
 136   0.0000       7.786721       211.8874 
 137   0.0000       7.786772       211.8888 
 138   0.0000       8.534123       232.2253 
 139   0.0000       8.534127       232.2254 
 140   0.0000       8.569318       233.1830 
 141   0.0000       8.602140       234.0761 
 142   0.0000       8.616968       234.4796 
 143   0.0000       8.616982       234.4800 
 144   0.0000       8.868148       241.3146 
 145   0.0000       8.868162       241.3150 
 146   0.0000       8.869275       241.3453 
 147   0.0000       9.080542       247.0941 
 148   0.0000       9.088209       247.3027 
 149   0.0000       9.088262       247.3042 
 150   0.0000       9.286967       252.7112 
 151   0.0000       9.393540       255.6112 
 152   0.0000       9.393541       255.6113 
 153   0.0000      22.634863       615.9259 
 154   0.0000      57.413185      1562.2922 
 155   0.0000      57.413196      1562.2925 
 156   0.0000      57.542931      1565.8228 

                 SPIN DOWN ORBITALS
  NO   OCC          E(Eh)            E(eV) 
   0   1.0000     -24.828354      -675.6139 
   1   1.0000     -24.828341      -675.6135 
   2   1.0000     -24.828331      -675.6132 
   3   1.0000     -10.541837      -286.8580 
   4   1.0000      -1.484965       -40.4079 
   5   1.0000      -1.348480       -36.6940 
   6   1.0000      -1.348473       -36.6938 
   7   1.0000      -0.819654       -22.3039 
   8   1.0000      -0.709247       -19.2996 
   9   1.0000      -0.709246       -19.2996 
  10   1.0000      -0.669876       -18.2283 
  11   1.0000      -0.593201       -16.1418 
  12   1.0000      -0.593191       -16.1416 
  13   1.0000      -0.522048       -14.2056 
  14   1.0000      -0.522041       -14.2055 
  15   1.0000      -0.508675       -13.8418 
  16   0.0000      -0.102667        -2.7937 
  17   0.0000       0.082794         2.2529 
  18   0.0000       0.108252         2.9457 
  19   0.0000       0.108253         2.9457 
  20   0.0000       0.125276         3.4089 
  21   0.0000       0.163822         4.4578 
  22   0.0000       0.163822         4.4578 
  23   0.0000       0.178413         4.8549 
  24   0.0000       0.178413         4.8549 
  25   0.0000       0.204253         5.5580 
  26   0.0000       0.225692         6.1414 
  27   0.0000       0.225695         6.1415 
  28   0.0000       0.242278         6.5927 
  29   0.0000       0.289487         7.8774 
  30   0.0000       0.363783         9.8990 
  31   0.0000       0.363787         9.8991 
  32   0.0000       0.368942        10.0394 
  33   0.0000       0.379454        10.3255 
  34   0.0000       0.379456        10.3255 
  35   0.0000       0.405054        11.0221 
  36   0.0000       0.405056        11.0221 
  37   0.0000       0.413232        11.2446 
  38   0.0000       0.452215        12.3054 
  39   0.0000       0.487110        13.2549 
  40   0.0000       0.487114        13.2551 
  41   0.0000       0.541230        14.7276 
  42   0.0000       0.588439        16.0122 
  43   0.0000       0.627304        17.0698 
  44   0.0000       0.627309        17.0700 
  45   0.0000       0.707561        19.2537 
  46   0.0000       0.707672        19.2567 
  47   0.0000       0.707679        19.2569 
  48   0.0000       0.737590        20.0708 
  49   0.0000       0.749537        20.3960 
  50   0.0000       0.749545        20.3962 
  51   0.0000       0.774733        21.0816 
  52   0.0000       0.795694        21.6519 
  53   0.0000       0.795696        21.6520 
  54   0.0000       0.863368        23.4934 
  55   0.0000       0.906915        24.6784 
  56   0.0000       0.906916        24.6784 
  57   0.0000       0.946158        25.7463 
  58   0.0000       0.985617        26.8200 
  59   0.0000       0.985622        26.8201 
  60   0.0000       1.084813        29.5193 
  61   0.0000       1.084815        29.5193 
  62   0.0000       1.125671        30.6311 
  63   0.0000       1.159316        31.5466 
  64   0.0000       1.159333        31.5471 
  65   0.0000       1.185623        32.2624 
  66   0.0000       1.260676        34.3047 
  67   0.0000       1.265549        34.4373 
  68   0.0000       1.265553        34.4375 
  69   0.0000       1.301536        35.4166 
  70   0.0000       1.301552        35.4170 
  71   0.0000       1.358627        36.9701 
  72   0.0000       1.475368        40.1468 
  73   0.0000       1.475389        40.1474 
  74   0.0000       1.697677        46.1961 
  75   0.0000       2.127610        57.8952 
  76   0.0000       2.169191        59.0267 
  77   0.0000       2.169219        59.0274 
  78   0.0000       2.207958        60.0816 
  79   0.0000       2.216645        60.3180 
  80   0.0000       2.216676        60.3188 
  81   0.0000       2.220700        60.4283 
  82   0.0000       2.342479        63.7421 
  83   0.0000       2.342493        63.7425 
  84   0.0000       2.472614        67.2833 
  85   0.0000       2.472615        67.2833 
  86   0.0000       2.483290        67.5738 
  87   0.0000       2.632934        71.6458 
  88   0.0000       2.632942        71.6460 
  89   0.0000       2.902251        78.9743 
  90   0.0000       2.932225        79.7899 
  91   0.0000       2.932253        79.7907 
  92   0.0000       2.992886        81.4406 
  93   0.0000       3.037414        82.6522 
  94   0.0000       3.187389        86.7333 
  95   0.0000       3.187408        86.7338 
  96   0.0000       3.247489        88.3687 
  97   0.0000       3.318055        90.2889 
  98   0.0000       3.318088        90.2898 
  99   0.0000       3.449396        93.8628 
 100   0.0000       3.449396        93.8628 
 101   0.0000       3.449962        93.8783 
 102   0.0000       3.669447        99.8507 
 103   0.0000       3.669484        99.8517 
 104   0.0000       3.693095       100.4942 
 105   0.0000       3.814549       103.7991 
 106   0.0000       3.965391       107.9038 
 107   0.0000       3.965427       107.9048 
 108   0.0000       3.974010       108.1383 
 109   0.0000       4.122969       112.1917 
 110   0.0000       4.122980       112.1920 
 111   0.0000       4.250205       115.6540 
 112   0.0000       4.356141       118.5366 
 113   0.0000       4.356193       118.5380 
 114   0.0000       5.413382       147.3056 
 115   0.0000       5.413412       147.3064 
 116   0.0000       5.600399       152.3946 
 117   0.0000       6.919663       188.2936 
 118   0.0000       6.919678       188.2940 
 119   0.0000       6.926960       188.4922 
 120   0.0000       6.938044       188.7938 
 121   0.0000       6.938052       188.7940 
 122   0.0000       6.942346       188.9109 
 123   0.0000       6.948302       189.0729 
 124   0.0000       6.948321       189.0734 
 125   0.0000       6.972383       189.7282 
 126   0.0000       7.060816       192.1346 
 127   0.0000       7.060866       192.1359 
 128   0.0000       7.187742       195.5884 
 129   0.0000       7.252419       197.3483 
 130   0.0000       7.252420       197.3484 
 131   0.0000       7.276337       197.9992 
 132   0.0000       7.437557       202.3862 
 133   0.0000       7.527373       204.8302 
 134   0.0000       7.654179       208.2808 
 135   0.0000       7.654226       208.2821 
 136   0.0000       7.795017       212.1132 
 137   0.0000       7.795070       212.1147 
 138   0.0000       8.541587       232.4284 
 139   0.0000       8.541590       232.4285 
 140   0.0000       8.579726       233.4662 
 141   0.0000       8.611096       234.3198 
 142   0.0000       8.626211       234.7311 
 143   0.0000       8.626226       234.7315 
 144   0.0000       8.872931       241.4447 
 145   0.0000       8.878224       241.5887 
 146   0.0000       8.878240       241.5892 
 147   0.0000       9.089225       247.3304 
 148   0.0000       9.092402       247.4168 
 149   0.0000       9.092448       247.4181 
 150   0.0000       9.292066       252.8500 
 151   0.0000       9.400460       255.7995 
 152   0.0000       9.400462       255.7996 
 153   0.0000      22.658216       616.5614 
 154   0.0000      57.415923      1562.3667 
 155   0.0000      57.415933      1562.3670 
 156   0.0000      57.545695      1565.8980 

                    ********************************
                    * MULLIKEN POPULATION ANALYSIS *
                    ********************************

--------------------------------------------
MULLIKEN ATOMIC CHARGES AND SPIN POPULATIONS
--------------------------------------------
   0 C :    0.576270    0.775358
   1 F :   -0.191937    0.074920
   2 F :   -0.192163    0.074860
   3 F :   -0.192169    0.074862
Sum of atomic charges         :    0.0000000
Sum of atomic spin populations:    1.0000000

-----------------------------------------------------
MULLIKEN REDUCED ORBITAL CHARGES AND SPIN POPULATIONS
-----------------------------------------------------
CHARGE
  0 C s       :     3.178510  s :     3.178510
      pz      :     0.810671  p :     1.917113
      px      :     0.553225
      py      :     0.553218
      dz2     :     0.064140  d :     0.283517
      dxz     :     0.045238
      dyz     :     0.045235
      dx2y2   :     0.064448
      dxy     :     0.064457
      f0      :     0.001730  f :     0.044590
      f+1     :     0.007310
      f-1     :     0.007309
      f+2     :     0.008005
      f-2     :     0.008010
      f+3     :     0.003536
      f-3     :     0.008690
  1 F s       :     3.953891  s :     3.953891
      pz      :     1.690506  p :     5.229261
      px      :     1.607492
      py      :     1.931262
      dz2     :     0.000732  d :     0.007908
      dxz     :     0.005233
      dyz     :     0.002081
      dx2y2   :     0.003765
      dxy     :    -0.003904
      f0      :     0.000085  f :     0.000877
      f+1     :     0.000197
      f-1     :     0.000010
      f+2     :     0.000231
      f-2     :     0.000089
      f+3     :     0.000135
      f-3     :     0.000131
  2 F s       :     3.953988  s :     3.953988
      pz      :     1.690487  p :     5.229402
      px      :     1.850374
      py      :     1.688541
      dz2     :     0.000730  d :     0.007896
      dxz     :     0.002868
      dyz     :     0.004442
      dx2y2   :    -0.001986
      dxy     :     0.001841
      f0      :     0.000085  f :     0.000877
      f+1     :     0.000056
      f-1     :     0.000150
      f+2     :     0.000125
      f-2     :     0.000196
      f+3     :     0.000135
      f-3     :     0.000131
  3 F s       :     3.953992  s :     3.953992
      pz      :     1.690488  p :     5.229404
      px      :     1.850375
      py      :     1.688541
      dz2     :     0.000730  d :     0.007896
      dxz     :     0.002868
      dyz     :     0.004442
      dx2y2   :    -0.001986
      dxy     :     0.001841
      f0      :     0.000085  f :     0.000877
      f+1     :     0.000056
      f-1     :     0.000150
      f+2     :     0.000125
      f-2     :     0.000196
      f+3     :     0.000135
      f-3     :     0.000131

SPIN
  0 C s       :     0.280986  s :     0.280986
      pz      :     0.458704  p :     0.486204
      px      :     0.013734
      py      :     0.013766
      dz2     :     0.013400  d :     0.008856
      dxz     :    -0.001378
      dyz     :    -0.001376
      dx2y2   :    -0.000896
      dxy     :    -0.000894
      f0      :     0.000025  f :    -0.000687
      f+1     :    -0.000268
      f-1     :    -0.000267
      f+2     :    -0.000224
      f-2     :    -0.000225
      f+3     :     0.000236
      f-3     :     0.000036
  1 F s       :     0.003005  s :     0.003005
      pz      :     0.074699  p :     0.070343
      px      :    -0.003108
      py      :    -0.001249
      dz2     :    -0.000281  d :     0.001545
      dxz     :     0.001194
      dyz     :    -0.000022
      dx2y2   :     0.000772
      dxy     :    -0.000118
      f0      :     0.000005  f :     0.000027
      f+1     :     0.000010
      f-1     :     0.000002
      f+2     :     0.000004
      f-2     :     0.000001
      f+3     :     0.000007
      f-3     :    -0.000001
  2 F s       :     0.002989  s :     0.002989
      pz      :     0.074667  p :     0.070297
      px      :    -0.001718
      py      :    -0.002653
      dz2     :    -0.000281  d :     0.001547
      dxz     :     0.000283
      dyz     :     0.000889
      dx2y2   :     0.000105
      dxy     :     0.000552
      f0      :     0.000005  f :     0.000027
      f+1     :     0.000004
      f-1     :     0.000008
      f+2     :     0.000001
      f-2     :     0.000003
      f+3     :     0.000007
      f-3     :    -0.000001
  3 F s       :     0.002990  s :     0.002990
      pz      :     0.074667  p :     0.070297
      px      :    -0.001717
      py      :    -0.002652
      dz2     :    -0.000281  d :     0.001548
      dxz     :     0.000283
      dyz     :     0.000889
      dx2y2   :     0.000105
      dxy     :     0.000552
      f0      :     0.000005  f :     0.000027
      f+1     :     0.000004
      f-1     :     0.000008
      f+2     :     0.000001
      f-2     :     0.000003
      f+3     :     0.000007
      f-3     :    -0.000001


                     *******************************
                     * LOEWDIN POPULATION ANALYSIS *
                     *******************************

-------------------------------------------
LOEWDIN ATOMIC CHARGES AND SPIN POPULATIONS
-------------------------------------------
   0 C :   -0.311215    0.628822
   1 F :    0.103749    0.123735
   2 F :    0.103733    0.123721
   3 F :    0.103733    0.123721

----------------------------------------------------
LOEWDIN REDUCED ORBITAL CHARGES AND SPIN POPULATIONS
----------------------------------------------------
CHARGE
  0 C s       :     2.716955  s :     2.716955
      pz      :     0.802338  p :     2.150271
      px      :     0.673958
      py      :     0.673975
      dz2     :     0.171115  d :     1.157308
      dxz     :     0.219025
      dyz     :     0.219026
      dx2y2   :     0.274069
      dxy     :     0.274074
      f0      :     0.017267  f :     0.286681
      f+1     :     0.036952
      f-1     :     0.036950
      f+2     :     0.058892
      f-2     :     0.058897
      f+3     :     0.031030
      f-3     :     0.046694
  1 F s       :     3.546134  s :     3.546134
      pz      :     1.646033  p :     5.093831
      px      :     1.657632
      py      :     1.790166
      dz2     :     0.045368  d :     0.254193
      dxz     :     0.068908
      dyz     :     0.014502
      dx2y2   :     0.044183
      dxy     :     0.081232
      f0      :     0.000175  f :     0.002092
      f+1     :     0.000562
      f-1     :     0.000004
      f+2     :     0.000495
      f-2     :     0.000213
      f+3     :     0.000283
      f-3     :     0.000361
  2 F s       :     3.546138  s :     3.546138
      pz      :     1.646035  p :     5.093848
      px      :     1.757040
      py      :     1.690772
      dz2     :     0.045368  d :     0.254188
      dxz     :     0.028103
      dyz     :     0.055305
      dx2y2   :     0.071969
      dxy     :     0.053444
      f0      :     0.000175  f :     0.002092
      f+1     :     0.000143
      f-1     :     0.000422
      f+2     :     0.000284
      f-2     :     0.000424
      f+3     :     0.000283
      f-3     :     0.000361
  3 F s       :     3.546138  s :     3.546138
      pz      :     1.646035  p :     5.093848
      px      :     1.757040
      py      :     1.690772
      dz2     :     0.045368  d :     0.254188
      dxz     :     0.028103
      dyz     :     0.055305
      dx2y2   :     0.071969
      dxy     :     0.053444
      f0      :     0.000175  f :     0.002092
      f+1     :     0.000143
      f-1     :     0.000422
      f+2     :     0.000284
      f-2     :     0.000424
      f+3     :     0.000283
      f-3     :     0.000361

SPIN
  0 C s       :     0.165932  s :     0.165932
      pz      :     0.395664  p :     0.407977
      px      :     0.006152
      py      :     0.006161
      dz2     :     0.055053  d :     0.046619
      dxz     :    -0.003559
      dyz     :    -0.003558
      dx2y2   :    -0.000660
      dxy     :    -0.000658
      f0      :     0.002554  f :     0.008294
      f+1     :    -0.000233
      f-1     :    -0.000232
      f+2     :    -0.000171
      f-2     :    -0.000173
      f+3     :     0.006547
      f-3     :     0.000002
  1 F s       :     0.014543  s :     0.014543
      pz      :     0.077005  p :     0.082118
      px      :     0.005711
      py      :    -0.000598
      dz2     :     0.012168  d :     0.026774
      dxz     :     0.013855
      dyz     :    -0.000234
      dx2y2   :     0.000999
      dxy     :    -0.000014
      f0      :     0.000012  f :     0.000300
      f+1     :     0.000236
      f-1     :     0.000001
      f+2     :     0.000015
      f-2     :     0.000001
      f+3     :     0.000032
      f-3     :     0.000002
  2 F s       :     0.014543  s :     0.014543
      pz      :     0.076985  p :     0.082104
      px      :     0.000979
      py      :     0.004140
      dz2     :     0.012168  d :     0.026774
      dxz     :     0.003288
      dyz     :     0.010333
      dx2y2   :     0.000239
      dxy     :     0.000746
      f0      :     0.000012  f :     0.000300
      f+1     :     0.000060
      f-1     :     0.000178
      f+2     :     0.000005
      f-2     :     0.000012
      f+3     :     0.000032
      f-3     :     0.000002
  3 F s       :     0.014543  s :     0.014543
      pz      :     0.076985  p :     0.082104
      px      :     0.000979
      py      :     0.004140
      dz2     :     0.012168  d :     0.026774
      dxz     :     0.003288
      dyz     :     0.010333
      dx2y2   :     0.000239
      dxy     :     0.000746
      f0      :     0.000012  f :     0.000300
      f+1     :     0.000060
      f-1     :     0.000178
      f+2     :     0.000005
      f-2     :     0.000012
      f+3     :     0.000032
      f-3     :     0.000002


                      *****************************
                      * MAYER POPULATION ANALYSIS *
                      *****************************

  NA   - Mulliken gross atomic population
  ZA   - Total nuclear charge
  QA   - Mulliken gross atomic charge
  VA   - Mayer's total valence
  BVA  - Mayer's bonded valence
  FA   - Mayer's free valence

  ATOM       NA         ZA         QA         VA         BVA        FA
  0 C      5.4237     6.0000     0.5763     3.7939     3.1852     0.6087
  1 F      9.1919     9.0000    -0.1919     1.0005     0.9960     0.0046
  2 F      9.1922     9.0000    -0.1922     1.0002     0.9956     0.0046
  3 F      9.1922     9.0000    -0.1922     1.0002     0.9956     0.0046

  Mayer bond orders larger than 0.100000
B(  0-C ,  1-F ) :   1.0620 B(  0-C ,  2-F ) :   1.0616 B(  0-C ,  3-F ) :   1.0616 


-------
TIMINGS
-------

Total SCF time: 0 days 0 hours 0 min 11 sec 

Total time                  ....      11.245 sec
Sum of individual times     ....      10.416 sec  ( 92.6%)

Fock matrix formation       ....       8.768 sec  ( 78.0%)
  Split-RI-J                ....       1.147 sec  ( 13.1% of F)
  Chain of spheres X        ....       2.961 sec  ( 33.8% of F)
  XC integration            ....       1.865 sec  ( 21.3% of F)
    Basis function eval.    ....       0.111 sec  (  6.0% of XC)
    Density eval.           ....       0.147 sec  (  7.9% of XC)
    XC-Functional eval.     ....       0.063 sec  (  3.4% of XC)
    XC-Potential eval.      ....       0.297 sec  ( 15.9% of XC)
Diagonalization             ....       0.347 sec  (  3.1%)
Density matrix formation    ....       0.013 sec  (  0.1%)
Population analysis         ....       0.148 sec  (  1.3%)
Initial guess               ....       0.129 sec  (  1.1%)
Orbital Transformation      ....       0.000 sec  (  0.0%)
Orbital Orthonormalization  ....       0.000 sec  (  0.0%)
DIIS solution               ....       0.435 sec  (  3.9%)
Grid generation             ....       0.576 sec  (  5.1%)

Maximum memory used throughout the entire SCF-calculation: 63.2 MB


-------------------------------------------------------------------------------
                          DFT DISPERSION CORRECTION                            
                                                                               
                              DFTD3 V3.1  Rev 1                                
                              USING zero damping                               
-------------------------------------------------------------------------------
The omegaB97X-D3 functional is recognized. Fit by Chai et al.
Active option DFTDOPT                   ...         3   

molecular C6(AA) [au] = 165.462308 


            DFT-D V3
 parameters
 s6 scaling factor         :     1.0000 
 rs6 scaling factor        :     1.2810 
 s8 scaling factor         :     1.0000 
 rs8 scaling factor        :     1.0940 
 Damping factor alpha6     :    14.0000 
 Damping factor alpha8     :    16.0000 
 ad hoc parameters k1-k3   :    16.0000     1.3333    -4.0000 

 Edisp/kcal,au: -0.022909632183  -0.000036508819 
 E6   /kcal   :  -0.002899589 
 E8   /kcal   :  -0.020010043 
 % E8         :  87.343361313 

-------------------------   ----------------
Dispersion correction           -0.000036509
-------------------------   ----------------


-------------------------   --------------------
FINAL SINGLE POINT ENERGY      -337.567054493166
-------------------------   --------------------



           ************************************************************
           *        Program running with 18 parallel MPI-processes    *
           *              working on a common directory               *
           ************************************************************
------------------------------------------------------------------------------
                         ORCA SCF GRADIENT CALCULATION
------------------------------------------------------------------------------

 ... reading COSX grid (gridx3)
Gradient of the Kohn-Sham DFT energy:
Kohn-Sham wavefunction type      ... UKS
Hartree-Fock exchange scaling    ...    0.196
Number of operators              ...    2
Number of atoms                  ...    4
Basis set dimensions             ...  157
Integral neglect threshold       ... 2.5e-11
Integral primitive cutoff        ... 2.5e-12
SHARK Integral package           ... ON

Nuc. rep. gradient       (SHARK) ... done (  0.0 sec)
HCore & Overlap gradient (SHARK) ... done (  0.0 sec)
RI-J gradient            (SHARK) ... done (  0.2 sec)
COSX-gradient                    ... done (  0.5 sec)
Exchange-correlation gradient    ... done
Dispersion correction            ... done

------------------
CARTESIAN GRADIENT
------------------

WARNING: THERE ARE 3 CONSTRAINED CARTESIAN COORDINATES
   1   C   :   -0.000304480    0.000000085    0.139574351
   2   F   :   -0.092876367    0.000000103   -0.046556592
   3   F   :    0.046644597   -0.080554220   -0.046753327
   4   F   :    0.046644702    0.080554128   -0.046753461

Difference to translation invariance:
           :    0.0001084527    0.0000000961   -0.0004890288

Difference to rotation invariance:
           :    0.0000002631   -0.0009465440    0.0000005119

Norm of the cartesian gradient     ...    0.2279819823
RMS gradient                       ...    0.0658127294
MAX gradient                       ...    0.1395743513

-------
TIMINGS
-------

Total SCF gradient time            ...        1.198 sec

One electron gradient       ....       0.013 sec  (  1.1%)
RI-J Coulomb gradient       ....       0.156 sec  ( 13.1%)
COSX gradient               ....       0.467 sec  ( 39.0%)
XC gradient                 ....       0.171 sec  ( 14.3%)

Maximum memory used throughout the entire SCFGRAD-calculation: 37.3 MB
------------------------------------------------------------------------------
                         ORCA GEOMETRY RELAXATION STEP
------------------------------------------------------------------------------

Reading the OPT-File                    .... done
Getting information on internals        .... done
Copying old internal coords+grads       .... done
Making the new internal coordinates     .... (new redundants).... done
Validating the new internal coordinates .... (new redundants).... done
Calculating the B-matrix                .... done
Calculating the G,G- and P matrices     .... done
Transforming gradient to internals      .... done
Projecting the internal gradient        .... done
Number of atoms                         ....   4
Number of internal coordinates          ....   7
Current Energy                          ....  -337.567054493 Eh
Current gradient norm                   ....     0.227981982 Eh/bohr
Maximum allowed component of the step   ....  0.300
Current trust radius                    ....  0.300
Evaluating the initial hessian          ....  (Almloef) done
Projecting the Hessian                  .... done
Forming the augmented Hessian           .... done
Diagonalizing the augmented Hessian     .... done
Last element of RFO vector              ....  0.990522229
Lowest eigenvalues of augmented Hessian:
 -0.013427693  0.684895726  0.684895726  0.698323419 1000.000000000
Length of the computed step             ....  0.138666769
The final length of the internal step   ....  0.138666769
Converting the step to cartesian space:
 Initial RMS(Int)=    0.0524111123
Transforming coordinates:
 Iter   0:  RMS(Cart)=    0.0358542277 RMS(Int)=    0.0524111126
 Iter   1:  RMS(Cart)=    0.0000000007 RMS(Int)=    0.0000000012
Imposing constraints:
 Iter   0:  RMS(Cart)=    0.0000000008 RMS(Int)=    0.0000000009
CONVERGED
done
Storing new coordinates                 .... done

                                .--------------------.
          ----------------------|Geometry convergence|-------------------------
          Item                value                   Tolerance       Converged
          ---------------------------------------------------------------------
          RMS gradient        0.0365999071            0.0001000000      NO
          MAX gradient        0.0559644568            0.0003000000      NO
          RMS step            0.0524111123            0.0020000000      NO
          MAX step            0.0801411715            0.0040000000      NO
          ........................................................
          Max(Bonds)      0.0424      Max(Angles)    0.00
          Max(Dihed)        0.00      Max(Improp)    0.00
          ---------------------------------------------------------------------

The optimization has not yet converged - more geometry cycles are needed


    ---------------------------------------------------------------------------
                         Redundant Internal Coordinates
                            (Angstroem and degrees)

        Definition                    Value    dE/dq     Step     New-Value
    ----------------------------------------------------------------------------
     1. B(F   1,C   0)                1.3150 -0.055793  0.0423    1.3573   
     2. B(F   2,C   0)                1.3150 -0.055964  0.0424    1.3574   
     3. B(F   3,C   0)                1.3150 -0.055964  0.0424    1.3574   
     4. A(F   2,C   0,F   3)           96.00 -0.153134   -0.00     96.00 C 
     5. A(F   1,C   0,F   2)           96.00 -0.072208   -0.00     96.00 C 
     6. A(F   1,C   0,F   3)           96.00 -0.072208   -0.00     96.00 C 
     7. I(F   1,F   3,F   2,C   0)     81.01  0.122104    0.00     81.01   
    ----------------------------------------------------------------------------

         *************************************************************
         *                GEOMETRY OPTIMIZATION CYCLE   2            *
         *************************************************************
---------------------------------
CARTESIAN COORDINATES (ANGSTROEM)
---------------------------------
  C      0.000041   -0.000000    0.016315
  F      1.164718   -0.000000   -0.680630
  F     -0.582379    1.008751   -0.680655
  F     -0.582379   -1.008751   -0.680655

----------------------------
CARTESIAN COORDINATES (A.U.)
----------------------------
  NO LB      ZA    FRAG     MASS         X           Y           Z
   0 C     6.0000    0    12.011    0.000077   -0.000000    0.030831
   1 F     9.0000    0    18.998    2.200998   -0.000000   -1.286205
   2 F     9.0000    0    18.998   -1.100537    1.906264   -1.286251
   3 F     9.0000    0    18.998   -1.100537   -1.906264   -1.286251

--------------------------------
INTERNAL COORDINATES (ANGSTROEM)
--------------------------------
 C      0   0   0     0.000000000000     0.00000000     0.00000000
 F      1   0   0     1.357278842899     0.00000000     0.00000000
 F      1   2   0     1.357408881356    95.99999995     0.00000000
 F      1   2   3     1.357408807595    95.99999995    96.70342332

---------------------------
INTERNAL COORDINATES (A.U.)
---------------------------
 C      0   0   0     0.000000000000     0.00000000     0.00000000
 F      1   0   0     2.564885300445     0.00000000     0.00000000
 F      1   2   0     2.565131037516    95.99999995     0.00000000
 F      1   2   3     2.565130898127    95.99999995    96.70342332



           ************************************************************
           *        Program running with 18 parallel MPI-processes    *
           *              working on a common directory               *
           ************************************************************
------------------------------------------------------------------------------
                   ___                                                        
                  /   \      - P O W E R E D   B Y -                         
                 /     \                                                     
                 |  |  |   _    _      __       _____    __    __             
                 |  |  |  | |  | |    /  \     |  _  \  |  |  /  |          
                  \  \/   | |  | |   /    \    | | | |  |  | /  /          
                 / \  \   | |__| |  /  /\  \   | |_| |  |  |/  /          
                |  |  |   |  __  | /  /__\  \  |    /   |      \           
                |  |  |   | |  | | |   __   |  |    \   |  |\   \          
                \     /   | |  | | |  |  |  |  | |\  \  |  | \   \       
                 \___/    |_|  |_| |__|  |__|  |_| \__\ |__|  \__/        
                                                                              
                      - O R C A' S   B I G   F R I E N D -                    
                                      &                                       
                       - I N T E G R A L  F E E D E R -                       
                                                                              
 v1 FN, 2020, v2 2021                                                         
------------------------------------------------------------------------------


Reading SHARK input file /beegfs/scratch/ispackman/PFAS_EPR_calcs/benchmark/JChemEd_CF3_radical/CF3_radical_96.0_degrees_IN-PROGRESS/CF3_radical_96.0_degrees.SHARKINP.tmp ... ok
----------------------
SHARK INTEGRAL PACKAGE
----------------------

Number of atoms                             ...      4
Number of basis functions                   ...    157
Number of shells                            ...     55
Maximum angular momentum                    ...      3
Integral batch strategy                     ... SHARK/LIBINT Hybrid
RI-J (if used) integral strategy            ... SPLIT-RIJ (Revised 2003 algorithm where possible)
Printlevel                                  ...      1
Contraction scheme used                     ... SEGMENTED contraction
Coulomb Range Separation                    ... NOT USED
Exchange Range Separation                   ... Long Range
   Mu parameter                             ...  0.250000
   Scaling (regular/separated)              ...  0.195728  0.804272
Finite Nucleus Model                        ... NOT USED
Auxiliary Coulomb fitting basis             ... AVAILABLE
   # of basis functions in Aux-J            ...    196
   # of shells in Aux-J                     ...     60
   Maximum angular momentum in Aux-J        ...      4
Auxiliary J/K fitting basis                 ... NOT available
Auxiliary Correlation fitting basis         ... NOT available
Auxiliary 'external' fitting basis          ... NOT available
Integral threshold                          ...     2.500000e-11
Primitive cut-off                           ...     2.500000e-12
Primitive pair pre-selection threshold      ...     2.500000e-12

Calculating pre-screening integrals         ... done (  0.1 sec) Dimension = 55
Organizing shell pair data                  ... done (  0.0 sec)
Shell pair information
Total number of shell pairs                 ...      1540
Shell pairs after pre-screening             ...      1510
Total number of primitive shell pairs       ...      4274
Primitive shell pairs kept                  ...      3575
          la=0 lb=0:    282 shell pairs
          la=1 lb=0:    360 shell pairs
          la=1 lb=1:    120 shell pairs
          la=2 lb=0:    276 shell pairs
          la=2 lb=1:    180 shell pairs
          la=2 lb=2:     78 shell pairs
          la=3 lb=0:     96 shell pairs
          la=3 lb=1:     60 shell pairs
          la=3 lb=2:     48 shell pairs
          la=3 lb=3:     10 shell pairs

Calculating one electron integrals          ... done (  0.0 sec)
Calculating RI/J V-Matrix + Cholesky decomp.... done (  0.0 sec)
Calculating Nuclear repulsion               ... done (  0.0 sec) ENN=    126.895964582838 Eh

SHARK setup successfully completed in   0.3 seconds

Maximum memory used throughout the entire GTOINT-calculation: 15.2 MB


           ************************************************************
           *        Program running with 18 parallel MPI-processes    *
           *              working on a common directory               *
           ************************************************************

Diagonalization of the overlap matrix:
Smallest eigenvalue                        ... 3.938e-04
Time for diagonalization                   ...    0.006 sec
Threshold for overlap eigenvalues          ... 1.000e-08
Number of eigenvalues below threshold      ... 0
Time for construction of square roots      ...    0.016 sec
Total time needed                          ...    0.023 sec

-------------------
DFT GRID GENERATION
-------------------

General Integration Accuracy     IntAcc      ... 4.388
Radial Grid Type                 RadialGrid  ... OptM3 with GC (2021)
Angular Grid (max. ang.)         AngularGrid ... 4 (Lebedev-302)
Angular grid pruning method      GridPruning ... 4 (adaptive)
Weight generation scheme         WeightScheme... Becke
Basis function cutoff            BFCut       ... 1.0000e-11
Integration weight cutoff        WCut        ... 1.0000e-14
Angular grids for H and He will be reduced by one unit
Partially contracted basis set               ... off
Rotationally invariant grid construction     ... off

Total number of grid points                  ...    25781
Total number of batches                      ...      404
Average number of points per batch           ...       63
Average number of grid points per atom       ...     6445
Time for grid setup =    0.168 sec

--------------------
COSX GRID GENERATION
--------------------

GRIDX 1
-------
General Integration Accuracy     IntAcc      ... 3.816
Radial Grid Type                 RadialGrid  ... OptM3 with GC (2021)
Angular Grid (max. ang.)         AngularGrid ... 1 (Lebedev-50)
Angular grid pruning method      GridPruning ... 4 (adaptive)
Weight generation scheme         WeightScheme... Becke
Basis function cutoff            BFCut       ... 1.0000e-11
Integration weight cutoff        WCut        ... 1.0000e-14
Angular grids for H and He will be reduced by one unit
Partially contracted basis set               ... on
Rotationally invariant grid construction     ... off

Total number of grid points                  ...     3274
Total number of batches                      ...       53
Average number of points per batch           ...       61
Average number of grid points per atom       ...      818
UseSFitting                                  ... on

GRIDX 2
-------
General Integration Accuracy     IntAcc      ... 4.020
Radial Grid Type                 RadialGrid  ... OptM3 with GC (2021)
Angular Grid (max. ang.)         AngularGrid ... 2 (Lebedev-110)
Angular grid pruning method      GridPruning ... 4 (adaptive)
Weight generation scheme         WeightScheme... Becke
Basis function cutoff            BFCut       ... 1.0000e-11
Integration weight cutoff        WCut        ... 1.0000e-14
Angular grids for H and He will be reduced by one unit
Partially contracted basis set               ... on
Rotationally invariant grid construction     ... off

Total number of grid points                  ...     9143
Total number of batches                      ...      144
Average number of points per batch           ...       63
Average number of grid points per atom       ...     2286
UseSFitting                                  ... on

GRIDX 3
-------
General Integration Accuracy     IntAcc      ... 4.338
Radial Grid Type                 RadialGrid  ... OptM3 with GC (2021)
Angular Grid (max. ang.)         AngularGrid ... 3 (Lebedev-194)
Angular grid pruning method      GridPruning ... 4 (adaptive)
Weight generation scheme         WeightScheme... Becke
Basis function cutoff            BFCut       ... 1.0000e-11
Integration weight cutoff        WCut        ... 1.0000e-14
Angular grids for H and He will be reduced by one unit
Partially contracted basis set               ... on
Rotationally invariant grid construction     ... off

Total number of grid points                  ...    19705
Total number of batches                      ...      310
Average number of points per batch           ...       63
Average number of grid points per atom       ...     4926
UseSFitting                                  ... on

Time for X-Grid setup             =    0.353 sec

--------------
SCF ITERATIONS
[...]
  FA   - Mayer's free valence

  ATOM       NA         ZA         QA         VA         BVA        FA
  0 C      5.4690     6.0000     0.5310     3.7709     3.1797     0.5912
  1 F      9.1768     9.0000    -0.1768     1.0187     1.0128     0.0058
  2 F      9.1771     9.0000    -0.1771     1.0181     1.0123     0.0059
  3 F      9.1771     9.0000    -0.1771     1.0182     1.0123     0.0059

  Mayer bond orders larger than 0.100000
B(  0-C ,  1-F ) :   1.0602 B(  0-C ,  2-F ) :   1.0597 B(  0-C ,  3-F ) :   1.0597 


-------
TIMINGS
-------

Total SCF time: 0 days 0 hours 0 min 4 sec 

Total time                  ....       4.488 sec
Sum of individual times     ....       3.796 sec  ( 84.6%)

Fock matrix formation       ....       2.986 sec  ( 66.5%)
  Split-RI-J                ....       0.471 sec  ( 15.8% of F)
  Chain of spheres X        ....       1.308 sec  ( 43.8% of F)
  XC integration            ....       0.507 sec  ( 17.0% of F)
    Basis function eval.    ....       0.037 sec  (  7.3% of XC)
    Density eval.           ....       0.046 sec  (  9.1% of XC)
    XC-Functional eval.     ....       0.020 sec  (  3.8% of XC)
    XC-Potential eval.      ....       0.066 sec  ( 13.0% of XC)
Diagonalization             ....       0.093 sec  (  2.1%)
Density matrix formation    ....       0.007 sec  (  0.2%)
Population analysis         ....       0.156 sec  (  3.5%)
Initial guess               ....       0.022 sec  (  0.5%)
Orbital Transformation      ....       0.000 sec  (  0.0%)
Orbital Orthonormalization  ....       0.011 sec  (  0.2%)
DIIS solution               ....       0.040 sec  (  0.9%)
Grid generation             ....       0.493 sec  ( 11.0%)

Maximum memory used throughout the entire SCF-calculation: 63.2 MB


-------------------------------------------------------------------------------
                          DFT DISPERSION CORRECTION                            
                                                                               
                              DFTD3 V3.1  Rev 1                                
                              USING zero damping                               
-------------------------------------------------------------------------------
The omegaB97X-D3 functional is recognized. Fit by Chai et al.
Active option DFTDOPT                   ...         3   

molecular C6(AA) [au] = 165.587063 


            DFT-D V3
 parameters
 s6 scaling factor         :     1.0000 
 rs6 scaling factor        :     1.2810 
 s8 scaling factor         :     1.0000 
 rs8 scaling factor        :     1.0940 
 Damping factor alpha6     :    14.0000 
 Damping factor alpha8     :    16.0000 
 ad hoc parameters k1-k3   :    16.0000     1.3333    -4.0000 

 Edisp/kcal,au: -0.030695421103  -0.000048916262 
 E6   /kcal   :  -0.003891530 
 E8   /kcal   :  -0.026803891 
 % E8         :  87.322115249 

-------------------------   ----------------
Dispersion correction           -0.000048916
-------------------------   ----------------


-------------------------   --------------------
FINAL SINGLE POINT ENERGY      -337.574345437116
-------------------------   --------------------

                                *** OPTIMIZATION RUN DONE ***

                            ***************************************
                            *     ORCA property calculations      *
                            ***************************************

                                    ---------------------
                                    Active property flags
                                    ---------------------
   (+) Dipole Moment


------------------------------------------------------------------------------
                       ORCA ELECTRIC PROPERTIES CALCULATION
------------------------------------------------------------------------------

Dipole Moment Calculation                       ... on
Quadrupole Moment Calculation                   ... off
Polarizability Calculation                      ... off
GBWName                                         ... /beegfs/scratch/ispackman/PFAS_EPR_calcs/benchmark/JChemEd_CF3_radical/CF3_radical_96.0_degrees_IN-PROGRESS/CF3_radical_96.0_degrees.gbw
Electron density                                ... /beegfs/scratch/ispackman/PFAS_EPR_calcs/benchmark/JChemEd_CF3_radical/CF3_radical_96.0_degrees_IN-PROGRESS/CF3_radical_96.0_degrees.scfp
The origin for moment calculation is the CENTER OF MASS  = (-0.000014,  0.000000 -1.057489)

-------------
DIPOLE MOMENT
-------------
                                X             Y             Z
Electronic contribution:      0.00042      -0.00000       0.18147
Nuclear contribution   :      0.00005      -0.00000       0.33889
                        -----------------------------------------
Total Dipole Moment    :      0.00046      -0.00000       0.52036
                        -----------------------------------------
Magnitude (a.u.)       :      0.52036
Magnitude (Debye)      :      1.32266



--------------------
Rotational spectrum 
--------------------
 
Rotational constants in cm-1:     0.383890     0.383810     0.215847 
Rotational constants in MHz : 11508.720135 11506.342373  6470.930546 

 Dipole components along the rotational axes: 
x,y,z [a.u.] :    -0.000000    -0.000489     0.520363 
x,y,z [Debye]:    -0.000001    -0.001243     1.322658 

 


           ************************************************************
           *        Program running with 18 parallel MPI-processes    *
           *              working on a common directory               *
           ************************************************************

-------------------------------------------------------------------------------
                               ORCA SCF HESSIAN
-------------------------------------------------------------------------------

                   --------- SHARK INITIALIZATION DONE ---------

Hessian of the Kohn-Sham DFT energy:
Kohn-Sham wavefunction type                      ... UKS
Hartree-Fock exchange scaling                    ...    0.196
Number of operators                              ...    2
Number of atoms                                  ...    4
Basis set dimensions                             ...  157
Integral neglect threshold                       ... 2.5e-11
Integral primitive cutoff                        ... 2.5e-12

Setting up DFT Hessian calculations              ... 

HESS GRID
---------

General Integration Accuracy     IntAcc      ... 4.629
Radial Grid Type                 RadialGrid  ... OptM3 with GC (2021)
Angular Grid (max. ang.)         AngularGrid ... 5 (Lebedev-434)
Angular grid pruning method      GridPruning ... 4 (adaptive)
Weight generation scheme         WeightScheme... Becke
Basis function cutoff            BFCut       ... 1.0000e-11
Integration weight cutoff        WCut        ... 1.0000e-14
Angular grids for H and He will be reduced by one unit
Partially contracted basis set               ... off
Rotationally invariant grid construction     ... off

Total number of grid points                  ...    39989
Total number of batches                      ...      627
Average number of points per batch           ...       63
Average number of grid points per atom       ...     9997

Building densities                               ... done   (      0.0 sec)
Calculating rho(r) on the grid                   ... done   (      0.1 sec)
Building xc-kernel on the grid                   ... done   (      0.1 sec)
                                                     done   (      0.6 sec)

Nuclear repulsion Hessian  (SHARK)               ... done   (      0.0 sec)

----------------------------------------------
Forming right-hand sides of CP-SCF equations     ...
----------------------------------------------
One electron integral derivatives  (SHARK)       ... done   (      0.0 sec)
Transforming the overlap derivative matrices     ... done   (      0.0 sec)
Making the Q(x) pseudodensities                  ... done   (      0.0 sec)
Adding the E*S(x)*S(y) terms to the Hessian      ... done   (      0.0 sec)
Calculating energy weighted overlap derivatives  ... done   (      0.0 sec)
Two electron integral derivatives (SHARK-RI)     ... done   (      2.4 sec)
Exchange-correlation integral derivatives        ... done   (      2.3 sec)
tr(F(y)Q(x)) contribution to the Hessian         ... done   (      0.0 sec)
Response fock operator R(S(x)) (SHARK-RIJCOSX)   ... done   (      0.9 sec)
XC Response fock operator R(S(x))                ... done   (      0.5 sec)
tr(F(y)S(x)) contribution to the Hessian         ... done   (      0.0 sec)
Transforming and finalizing RHSs                 ... done   (      0.1 sec)

----------------------------------------------
Solving the CP-SCF equations (RIJCOSX)           ...
----------------------------------------------
     CP-SCF ITERATION   0:   1.6156e-01 (   0.5 sec   0/ 12 done)
     CP-SCF ITERATION   1:   6.0302e-02 (   0.5 sec   0/ 12 done)
     CP-SCF ITERATION   2:   2.4617e-02 (   0.5 sec   0/ 12 done)
     CP-SCF ITERATION   3:   7.5162e-03 (   0.5 sec   0/ 12 done)
     CP-SCF ITERATION   4:   2.7444e-03 (   0.5 sec   0/ 12 done)
     CP-SCF ITERATION   5:   1.2284e-03 (   0.5 sec   1/ 12 done)
     CP-SCF ITERATION   6:   4.3201e-04 (   0.4 sec   2/ 12 done)
     CP-SCF ITERATION   7:   1.1828e-04 (   0.4 sec   8/ 12 done)
     CP-SCF ITERATION   8:   3.7985e-05 (   0.4 sec  12/ 12 done)
                    *** THE CP-SCF HAS CONVERGED ***

                                                 ... done   (      4.4 sec)
Forming perturbed density Hessian contributions  ... done   (      0.0 sec)
2nd integral derivative contribs (SHARK-RI)      ... done   (      6.8 sec)
Exchange-correlation Hessian                     ... done   (      0.9 sec)
Dispersion correction in the Hessian             ... done   (      0.1 sec)
Dipole derivatives                               ... (center of mass: -0.000014,  0.000000 -1.057489)done   (      0.1 sec)

Total SCF Hessian time: 0 days 0 hours 0 min 19 sec 

Writing the Hessian file to the disk             ... done


Maximum memory used throughout the entire SCFHESS-calculation: 145.1 MB

-----------------------
VIBRATIONAL FREQUENCIES
-----------------------

Scaling factor for frequencies =  1.000000000  (already applied!)

   0:         0.00 cm**-1
   1:         0.00 cm**-1
   2:         0.00 cm**-1
   3:         0.00 cm**-1
   4:         0.00 cm**-1
   5:         0.00 cm**-1
   6:       603.14 cm**-1
   7:       603.85 cm**-1
   8:       802.82 cm**-1
   9:       980.60 cm**-1
  10:       981.51 cm**-1
  11:      1056.75 cm**-1


------------
NORMAL MODES
------------

These modes are the Cartesian displacements weighted by the diagonal matrix
M(i,i)=1/sqrt(m[i]) where m[i] is the mass of the displaced atom
Thus, these vectors are normalized but *not* orthogonal

                  0          1          2          3          4          5    
      0       0.000000   0.000000   0.000000   0.000000   0.000000   0.000000
      1       0.000000   0.000000   0.000000   0.000000   0.000000   0.000000
      2       0.000000   0.000000   0.000000   0.000000   0.000000   0.000000
      3       0.000000   0.000000   0.000000   0.000000   0.000000   0.000000
      4       0.000000   0.000000   0.000000   0.000000   0.000000   0.000000
      5       0.000000   0.000000   0.000000   0.000000   0.000000   0.000000
      6       0.000000   0.000000   0.000000   0.000000   0.000000   0.000000
      7       0.000000   0.000000   0.000000   0.000000   0.000000   0.000000
      8       0.000000   0.000000   0.000000   0.000000   0.000000   0.000000
      9       0.000000   0.000000   0.000000   0.000000   0.000000   0.000000
     10       0.000000   0.000000   0.000000   0.000000   0.000000   0.000000
     11       0.000000   0.000000   0.000000   0.000000   0.000000   0.000000
                  6          7          8          9         10         11    
      0       0.290090  -0.000030  -0.000862  -0.000379   0.877656  -0.003192
      1      -0.000030  -0.289645   0.000000   0.877750   0.000379   0.000002
      2      -0.000227  -0.000000  -0.601731  -0.000002   0.002414   0.818400
      3       0.485094  -0.000050   0.443969   0.000136  -0.317151   0.284898
      4       0.000062   0.607864   0.000000  -0.051566  -0.000022   0.000000
      5       0.073227  -0.000007   0.126625  -0.000095   0.220848  -0.173298
      6      -0.334200   0.473534  -0.221712   0.115604  -0.118812  -0.141439
      7      -0.473865  -0.212323   0.383573  -0.251736   0.116884   0.244739
      8      -0.036548  -0.063243   0.126902   0.191753  -0.111104  -0.172057
      9      -0.334297  -0.473465  -0.221712  -0.115500  -0.118912  -0.141440
     10       0.473821  -0.212420  -0.383573  -0.251633  -0.117101  -0.244740
     11      -0.036535   0.063251   0.126902  -0.191656  -0.111270  -0.172058


-----------
IR SPECTRUM
-----------

 Mode   freq       eps      Int      T**2         TX        TY        TZ
       cm**-1   L/(mol*cm) km/mol    a.u.
----------------------------------------------------------------------------
  6:    603.14   0.000296    1.50  0.000153  ( 0.012386 -0.000001 -0.000009)
  7:    603.85   0.000293    1.48  0.000151  (-0.000001 -0.012308 -0.000000)
  8:    802.82   0.003150   15.92  0.001224  (-0.000144 -0.000000 -0.034991)
  9:    980.60   0.056076  283.39  0.017846  (-0.000058  0.133587 -0.000000)
 10:    981.51   0.056111  283.56  0.017840  ( 0.133567  0.000058  0.000155)
 11:   1056.75   0.008444   42.67  0.002494  (-0.000514  0.000000  0.049934)

* The epsilon (eps) is given for a Dirac delta lineshape.
** The dipole moment derivative (T) already includes vibrational overlap.

The first frequency considered to be a vibration is 6
The total number of vibrations considered is 6


--------------------------
THERMOCHEMISTRY AT 298.15K
--------------------------

Temperature         ... 298.15 K
Pressure            ... 1.00 atm
Total Mass          ... 69.00 AMU

Throughout the following assumptions are being made:
  (1) The electronic state is orbitally nondegenerate
      but the spin degeneracy is treated
  (2) There are no thermally accessible electronically excited states
  (3) Hindered rotations indicated by low frequency modes are not
      treated as such but are treated as vibrations and this may
      cause some error
  (4) All equations used are the standard statistical mechanics
      equations for an ideal gas
  (5) All vibrations are strictly harmonic

freq.     603.14  E(vib)   ...       0.10 
freq.     603.85  E(vib)   ...       0.10 
freq.     802.82  E(vib)   ...       0.05 
freq.     980.60  E(vib)   ...       0.02 
freq.     981.51  E(vib)   ...       0.02 
freq.    1056.75  E(vib)   ...       0.02 

------------
INNER ENERGY
------------

The inner energy is: U= E(el) + E(ZPE) + E(vib) + E(rot) + E(trans)
    E(el)   - is the total energy from the electronic structure calculation
              = E(kin-el) + E(nuc-el) + E(el-el) + E(nuc-nuc)
    E(ZPE)  - the the zero temperature vibrational energy from the frequency calculation
    E(vib)  - the the finite temperature correction to E(ZPE) due to population
              of excited vibrational states
    E(rot)  - is the rotational thermal energy
    E(trans)- is the translational thermal energy

Summary of contributions to the inner energy U:
Electronic energy                ...   -337.57434544 Eh
Zero point energy                ...      0.01145616 Eh       7.19 kcal/mol
Thermal vibrational correction   ...      0.00050254 Eh       0.32 kcal/mol
Thermal rotational correction    ...      0.00141627 Eh       0.89 kcal/mol
Thermal translational correction ...      0.00141627 Eh       0.89 kcal/mol
-----------------------------------------------------------------------
Total thermal energy                   -337.55955419 Eh


Summary of corrections to the electronic energy:
(perhaps to be used in another calculation)
Total thermal correction                  0.00333509 Eh       2.09 kcal/mol
Non-thermal (ZPE) correction              0.01145616 Eh       7.19 kcal/mol
-----------------------------------------------------------------------
Total correction                          0.01479124 Eh       9.28 kcal/mol


--------
ENTHALPY
--------

The enthalpy is H = U + kB*T
                kB is Boltzmann's constant
Total free energy                 ...   -337.55955419 Eh 
Thermal Enthalpy correction       ...      0.00094421 Eh       0.59 kcal/mol
-----------------------------------------------------------------------
Total Enthalpy                    ...   -337.55860998 Eh


Note: Rotational entropy computed according to Herzberg 
Infrared and Raman Spectra, Chapter V,1, Van Nostrand Reinhold, 1945 
Point Group:  Cs, Symmetry Number:   1  
Rotational constants in cm-1:     0.383890     0.383810     0.215847 

Vibrational entropy computed according to the QRRHO of S. Grimme
Chem.Eur.J. 2012 18 9955


-------
ENTROPY
-------

The entropy contributions are T*S = T*(S(el)+S(vib)+S(rot)+S(trans))
     S(el)   - electronic entropy
     S(vib)  - vibrational entropy
     S(rot)  - rotational entropy
     S(trans)- translational entropy
The entropies will be listed as multiplied by the temperature to get
units of energy

Electronic entropy                ...      0.00065446 Eh      0.41 kcal/mol
Vibrational entropy               ...      0.00065092 Eh      0.41 kcal/mol
Rotational entropy                ...      0.01113867 Eh      6.99 kcal/mol
Translational entropy             ...      0.01834582 Eh     11.51 kcal/mol
-----------------------------------------------------------------------
Final entropy term                ...      0.03078986 Eh     19.32 kcal/mol

In case the symmetry of your molecule has not been determined correctly
or in case you have a reason to use a different symmetry number we print 
out the resulting rotational entropy values for sn=1,12 :
 --------------------------------------------------------
|  sn= 1 | S(rot)=       0.01113867 Eh      6.99 kcal/mol|
|  sn= 2 | S(rot)=       0.01048421 Eh      6.58 kcal/mol|
|  sn= 3 | S(rot)=       0.01010138 Eh      6.34 kcal/mol|
|  sn= 4 | S(rot)=       0.00982976 Eh      6.17 kcal/mol|
|  sn= 5 | S(rot)=       0.00961907 Eh      6.04 kcal/mol|
|  sn= 6 | S(rot)=       0.00944692 Eh      5.93 kcal/mol|
|  sn= 7 | S(rot)=       0.00930138 Eh      5.84 kcal/mol|
|  sn= 8 | S(rot)=       0.00917530 Eh      5.76 kcal/mol|
|  sn= 9 | S(rot)=       0.00906409 Eh      5.69 kcal/mol|
|  sn=10 | S(rot)=       0.00896461 Eh      5.63 kcal/mol|
|  sn=11 | S(rot)=       0.00887462 Eh      5.57 kcal/mol|
|  sn=12 | S(rot)=       0.00879247 Eh      5.52 kcal/mol|
 --------------------------------------------------------


-------------------
GIBBS FREE ENERGY
-------------------

The Gibbs free energy is G = H - T*S

Total enthalpy                    ...   -337.55860998 Eh 
Total entropy correction          ...     -0.03078986 Eh    -19.32 kcal/mol
-----------------------------------------------------------------------
Final Gibbs free energy         ...   -337.58939984 Eh

For completeness - the Gibbs free energy minus the electronic energy
G-E(el)                           ...     -0.01505441 Eh     -9.45 kcal/mol


Timings for individual modules:

Sum of individual times         ...      105.422 sec (=   1.757 min)
GTO integral calculation        ...       13.842 sec (=   0.231 min)  13.1 %
SCF iterations                  ...       54.333 sec (=   0.906 min)  51.5 %
SCF Gradient evaluation         ...       14.623 sec (=   0.244 min)  13.9 %
Geometry relaxation             ...        0.209 sec (=   0.003 min)   0.2 %
Analytical frequency calculation...       22.415 sec (=   0.374 min)  21.3 %
                             ****ORCA TERMINATED NORMALLY****
TOTAL RUN TIME: 0 days 0 hours 1 minutes 59 seconds 264 msec

slurmID:    32260083
totalRuntime[s]:    119.302415110
