
                                 *****************
                                 * O   R   C   A *
                                 *****************

                                            #,                                       
                                            ###                                      
                                            ####                                     
                                            #####                                    
                                            ######                                   
                                           ########,                                 
                                     ,,################,,,,,                         
                               ,,#################################,,                 
                          ,,##########################################,,             
                       ,#########################################, ''#####,          
                    ,#############################################,,   '####,        
                  ,##################################################,,,,####,       
                ,###########''''           ''''###############################       
              ,#####''   ,,,,##########,,,,          '''####'''          '####       
            ,##' ,,,,###########################,,,                        '##       
           ' ,,###''''                  '''############,,,                           
         ,,##''                                '''############,,,,        ,,,,,,###''
      ,#''                                            '''#######################'''  
     '                                                          ''''####''''         
             ,#######,   #######,   ,#######,      ##                                
            ,#'     '#,  ##    ##  ,#'     '#,    #''#        ######   ,####,        
            ##       ##  ##   ,#'  ##            #'  '#       #        #'  '#        
            ##       ##  #######   ##           ,######,      #####,   #    #        
            '#,     ,#'  ##    ##  '#,     ,#' ,#      #,         ##   #,  ,#        
             '#######'   ##     ##  '#######'  #'      '#     #####' # '####'        



                  #######################################################
                  #                        -***-                        #
                  #          Department of theory and spectroscopy      #
                  #    Directorship and core code : Frank Neese         #
                  #        Max Planck Institute fuer Kohlenforschung    #
                  #                Kaiser Wilhelm Platz 1               #
                  #                 D-45470 Muelheim/Ruhr               #
                  #                      Germany                        #
                  #                                                     #
                  #                  All rights reserved                #
                  #                        -***-                        #
                  #######################################################


                         Program Version 5.0.4 -  RELEASE  -


 With contributions from (in alphabetic order):
   Daniel Aravena         : Magnetic Suceptibility
   Michael Atanasov       : Ab Initio Ligand Field Theory (pilot matlab implementation)
   Alexander A. Auer      : GIAO ZORA, VPT2 properties, NMR spectrum
   Ute Becker             : Parallelization
   Giovanni Bistoni       : ED, misc. LED, open-shell LED, HFLD
   Martin Brehm           : Molecular dynamics
   Dmytro Bykov           : SCF Hessian
   Vijay G. Chilkuri      : MRCI spin determinant printing, contributions to CSF-ICE
   Dipayan Datta          : RHF DLPNO-CCSD density
   Achintya Kumar Dutta   : EOM-CC, STEOM-CC
   Dmitry Ganyushin       : Spin-Orbit,Spin-Spin,Magnetic field MRCI
   Miquel Garcia          : C-PCM and meta-GGA Hessian, CC/C-PCM, Gaussian charge scheme
   Yang Guo               : DLPNO-NEVPT2, F12-NEVPT2, CIM, IAO-localization
   Andreas Hansen         : Spin unrestricted coupled pair/coupled cluster methods
   Benjamin Helmich-Paris : MC-RPA, TRAH-SCF, COSX integrals
   Lee Huntington         : MR-EOM, pCC
   Robert Izsak           : Overlap fitted RIJCOSX, COSX-SCS-MP3, EOM
   Marcus Kettner         : VPT2
   Christian Kollmar      : KDIIS, OOCD, Brueckner-CCSD(T), CCSD density, CASPT2, CASPT2-K
   Simone Kossmann        : Meta GGA functionals, TD-DFT gradient, OOMP2, MP2 Hessian
   Martin Krupicka        : Initial AUTO-CI
   Lucas Lang             : DCDCAS
   Marvin Lechner         : AUTO-CI (C++ implementation), FIC-MRCC
   Dagmar Lenk            : GEPOL surface, SMD
   Dimitrios Liakos       : Extrapolation schemes; Compound Job, initial MDCI parallelization
   Dimitrios Manganas     : Further ROCIS development; embedding schemes
   Dimitrios Pantazis     : SARC Basis sets
   Anastasios Papadopoulos: AUTO-CI, single reference methods and gradients
   Taras Petrenko         : DFT Hessian,TD-DFT gradient, ASA, ECA, R-Raman, ABS, FL, XAS/XES, NRVS
   Peter Pinski           : DLPNO-MP2, DLPNO-MP2 Gradient
   Christoph Reimann      : Effective Core Potentials
   Marius Retegan         : Local ZFS, SOC
   Christoph Riplinger    : Optimizer, TS searches, QM/MM, DLPNO-CCSD(T), (RO)-DLPNO pert. Triples
   Tobias Risthaus        : Range-separated hybrids, TD-DFT gradient, RPA, STAB
   Michael Roemelt        : Original ROCIS implementation
   Masaaki Saitow         : Open-shell DLPNO-CCSD energy and density
   Barbara Sandhoefer     : DKH picture change effects
   Avijit Sen             : IP-ROCIS
   Kantharuban Sivalingam : CASSCF convergence, NEVPT2, FIC-MRCI
   Bernardo de Souza      : ESD, SOC TD-DFT
   Georgi Stoychev        : AutoAux, RI-MP2 NMR, DLPNO-MP2 response
   Willem Van den Heuvel  : Paramagnetic NMR
   Boris Wezisla          : Elementary symmetry handling
   Frank Wennmohs         : Technical directorship


 We gratefully acknowledge several colleagues who have allowed us to
 interface, adapt or use parts of their codes:
   Stefan Grimme, W. Hujo, H. Kruse, P. Pracht,  : VdW corrections, initial TS optimization,
                  C. Bannwarth, S. Ehlert          DFT functionals, gCP, sTDA/sTD-DF
   Ed Valeev, F. Pavosevic, A. Kumar             : LibInt (2-el integral package), F12 methods
   Garnet Chan, S. Sharma, J. Yang, R. Olivares  : DMRG
   Ulf Ekstrom                                   : XCFun DFT Library
   Mihaly Kallay                                 : mrcc  (arbitrary order and MRCC methods)
   Jiri Pittner, Ondrej Demel                    : Mk-CCSD
   Frank Weinhold                                : gennbo (NPA and NBO analysis)
   Christopher J. Cramer and Donald G. Truhlar   : smd solvation model
   Lars Goerigk                                  : TD-DFT with DH, B97 family of functionals
   V. Asgeirsson, H. Jonsson                     : NEB implementation
   FAccTs GmbH                                   : IRC, NEB, NEB-TS, DLPNO-Multilevel, CI-OPT
                                                   MM, QMMM, 2- and 3-layer-ONIOM, Crystal-QMMM,
                                                   LR-CPCM, SF, NACMEs, symmetry and pop. for TD-DFT,
                                                   nearIR, NL-DFT gradient (VV10), updates on ESD,
                                                   ML-optimized integration grids
   S Lehtola, MJT Oliveira, MAL Marques          : LibXC Library
   Liviu Ungur et al                             : ANISO software


 Your calculation uses the libint2 library for the computation of 2-el integrals
 For citations please refer to: http://libint.valeyev.net

 Your ORCA version has been built with support for libXC version: 5.1.0
 For citations please refer to: https://tddft.org/programs/libxc/

 This ORCA versions uses:
   CBLAS   interface :  Fast vector & matrix operations
   LAPACKE interface :  Fast linear algebra routines
   SCALAPACK package :  Parallel linear algebra routines
   Shared memory     :  Shared parallel matrices
   BLAS/LAPACK       :  OpenBLAS 0.3.15  USE64BITINT DYNAMIC_ARCH NO_AFFINITY SkylakeX SINGLE_THREADED
        Core in use  :  SkylakeX
   Copyright (c) 2011-2014, The OpenBLAS Project


Your calculation utilizes the atom-pairwise dispersion correction
with the zero-damping scheme (D30)
Cite in your paper:
S.Grimme, J.Antony, S.Ehrlich and H.Krieg, J.Chem.Phys., 132, (2010), 154104 
   

XCFun DFT library Copyright 2009-2010 Ulf Ekstrom and contributors.
See http://admol.org/xcfun for more information.
This is free software; see the source code for copying conditions.
There is ABSOLUTELY NO WARRANTY; not even for MERCHANTABILITY or FITNESS FOR A PARTICULAR PURPOSE.
For details see the documentation.
Scientific users of this library should cite U. Ekstrom, L. Visscher, R. Bast, A. J. Thorvaldsen and K. Ruud;
J.Chem.Theor.Comp. 2010, DOI: 10.1021/ct100117s
XCFun Version 0.99 

================================================================================

----- Orbital basis set information -----
Your calculation utilizes the basis: def2-TZVPD
   F. Weigend and R. Ahlrichs, Phys. Chem. Chem. Phys. 7, 3297 (2005).
   D. Rappoport and F. Furche, J. Chem. Phys. 133 134105 (2010).

----- AuxJ basis set information -----
Your calculation utilizes the auxiliary basis: def2/J
   F. Weigend, Phys. Chem. Chem. Phys. 8, 1057 (2006).

================================================================================
                                        WARNINGS
                       Please study these warnings very carefully!
================================================================================


WARNING: Geometry Optimization
  ===> : Switching off AutoStart
         For restart on a previous wavefunction, please use MOREAD

INFO   : the flag for use of the SHARK integral package has been found!

================================================================================
                                       INPUT FILE
================================================================================
NAME = /beegfs/scratch/ispackman/PFAS_EPR_calcs/benchmark/JChemEd_CF3_radical/CF3_radical_99.0_degrees_IN-PROGRESS/CF3_radical_99.0_degrees.inp
|  1> ! UKS TightSCF wB97x-D3 def2-TZVPD xyzfile opt freq
|  2> 
|  3> # CF3 radical 99.0 degrees fixed
|  4> 
|  5> %maxcore 1000
|  6> %pal
|  7> nprocs 18
|  8> end
|  9> 
| 10> %geom Constraints
| 11>         { A * 0 * C }
| 12>     end
| 13> end
| 14> * xyz 0 2
| 15> C 0.00 0.00 0.00
| 16> F 1.1546241489 0.0000000000 -0.6293393956
| 17> F -0.5773120744 0.9999338448 -0.6293393956
| 18> F -0.5773120744 -0.9999338448 -0.6293393956
| 19> **                         ****END OF INPUT****
================================================================================

                       *****************************
                       * Geometry Optimization Run *
                       *****************************

Geometry optimization settings:
Update method            Update   .... BFGS
Choice of coordinates    CoordSys .... Z-matrix Internals
Initial Hessian          InHess   .... Almoef's Model

Convergence Tolerances:
Energy Change            TolE     ....  5.0000e-06 Eh
Max. Gradient            TolMAXG  ....  3.0000e-04 Eh/bohr
RMS Gradient             TolRMSG  ....  1.0000e-04 Eh/bohr
Max. Displacement        TolMAXD  ....  4.0000e-03 bohr
RMS Displacement         TolRMSD  ....  2.0000e-03 bohr
Strict Convergence                ....  False
------------------------------------------------------------------------------
                        ORCA OPTIMIZATION COORDINATE SETUP
------------------------------------------------------------------------------

The optimization will be done in new redundant internal coordinates
Making redundant internal coordinates   ...  (new redundants) done
Evaluating the initial hessian          ...  (Almloef) done
Evaluating the coordinates              ...  done
Calculating the B-matrix                .... done
Calculating the G-matrix                .... done
Diagonalizing the G-matrix              .... done
Imposing constraints:
 Iter   0:  RMS(Cart)=    0.0000000000 RMS(Int)=    0.0000000000
CONVERGED
Will constrain atom 0 coordinate 1 
Will constrain atom 0 coordinate 2 
Will constrain atom 1 coordinate 2 
The first mode is                       ....    1
The number of degrees of freedom        ....    6
Storing new coordinates                 .... done

    -----------------------------------------------------------------
                    Redundant Internal Coordinates


    -----------------------------------------------------------------
         Definition                    Initial Value    Approx d2E/dq
    -----------------------------------------------------------------
      1. B(F   1,C   0)                  1.3150         0.684896   
      2. B(F   2,C   0)                  1.3150         0.684896   
      3. B(F   3,C   0)                  1.3150         0.684896   
      4. A(F   2,C   0,F   3)           99.0000         0.440101 C 
      5. A(F   1,C   0,F   2)           99.0000         0.440101 C 
      6. A(F   1,C   0,F   3)           99.0000         0.440101 C 
      7. I(F   1,F   3,F   2,C   0)     76.0619         0.002790   
    -----------------------------------------------------------------

Number of atoms                         .... 4
Number of degrees of freedom            .... 7

         *************************************************************
         *                GEOMETRY OPTIMIZATION CYCLE   1            *
         *************************************************************
---------------------------------
CARTESIAN COORDINATES (ANGSTROEM)
---------------------------------
  C      0.000000    0.000000    0.000000
  F      1.154624    0.000000   -0.629339
  F     -0.577312    0.999934   -0.629339
  F     -0.577312   -0.999934   -0.629339

----------------------------
CARTESIAN COORDINATES (A.U.)
----------------------------
  NO LB      ZA    FRAG     MASS         X           Y           Z
   0 C     6.0000    0    12.011    0.000000    0.000000    0.000000
   1 F     9.0000    0    18.998    2.181923    0.000000   -1.189279
   2 F     9.0000    0    18.998   -1.090962    1.889601   -1.189279
   3 F     9.0000    0    18.998   -1.090962   -1.889601   -1.189279

--------------------------------
INTERNAL COORDINATES (ANGSTROEM)
--------------------------------
 C      0   0   0     0.000000000000     0.00000000     0.00000000
 F      1   0   0     1.315000000029     0.00000000     0.00000000
 F      1   2   0     1.315000000030    99.00000000     0.00000000
 F      1   2   3     1.315000000030    99.00000000   100.68704026

---------------------------
INTERNAL COORDINATES (A.U.)
---------------------------
 C      0   0   0     0.000000000000     0.00000000     0.00000000
 F      1   0   0     2.484989866162     0.00000000     0.00000000
 F      1   2   0     2.484989866163    99.00000000     0.00000000
 F      1   2   3     2.484989866163    99.00000000   100.68704026

---------------------
BASIS SET INFORMATION
---------------------
There are 2 groups of distinct atoms

 Group   1 Type C   : 12s6p3d1f contracted to 6s3p3d1f pattern {621111/411/111/1}
 Group   2 Type F   : 12s7p3d1f contracted to 6s4p3d1f pattern {621111/4111/111/1}

Atom   0C    basis set group =>   1
Atom   1F    basis set group =>   2
Atom   2F    basis set group =>   2
Atom   3F    basis set group =>   2
---------------------------------
AUXILIARY/J BASIS SET INFORMATION
---------------------------------
There are 2 groups of distinct atoms

 Group   1 Type C   : 12s5p4d2f1g contracted to 6s4p3d1f1g pattern {711111/2111/211/2/1}
 Group   2 Type F   : 12s5p4d2f1g contracted to 6s4p3d1f1g pattern {711111/2111/211/2/1}

Atom   0C    basis set group =>   1
Atom   1F    basis set group =>   2
Atom   2F    basis set group =>   2
Atom   3F    basis set group =>   2


           ************************************************************
           *        Program running with 18 parallel MPI-processes    *
           *              working on a common directory               *
           ************************************************************
------------------------------------------------------------------------------
                           ORCA GTO INTEGRAL CALCULATION
                           -- RI-GTO INTEGRALS CHOSEN --
------------------------------------------------------------------------------
------------------------------------------------------------------------------
                   ___                                                        
                  /   \      - P O W E R E D   B Y -                         
                 /     \                                                     
                 |  |  |   _    _      __       _____    __    __             
                 |  |  |  | |  | |    /  \     |  _  \  |  |  /  |          
                  \  \/   | |  | |   /    \    | | | |  |  | /  /          
                 / \  \   | |__| |  /  /\  \   | |_| |  |  |/  /          
                |  |  |   |  __  | /  /__\  \  |    /   |      \           
                |  |  |   | |  | | |   __   |  |    \   |  |\   \          
                \     /   | |  | | |  |  |  |  | |\  \  |  | \   \       
                 \___/    |_|  |_| |__|  |__|  |_| \__\ |__|  \__/        
                                                                              
                      - O R C A' S   B I G   F R I E N D -                    
                                      &                                       
                       - I N T E G R A L  F E E D E R -                       
                                                                              
 v1 FN, 2020, v2 2021                                                         
------------------------------------------------------------------------------


Reading SHARK input file /beegfs/scratch/ispackman/PFAS_EPR_calcs/benchmark/JChemEd_CF3_radical/CF3_radical_99.0_degrees_IN-PROGRESS/CF3_radical_99.0_degrees.SHARKINP.tmp ... ok
----------------------
SHARK INTEGRAL PACKAGE
----------------------

Number of atoms                             ...      4
Number of basis functions                   ...    157
Number of shells                            ...     55
Maximum angular momentum                    ...      3
Integral batch strategy                     ... SHARK/LIBINT Hybrid
RI-J (if used) integral strategy            ... SPLIT-RIJ (Revised 2003 algorithm where possible)
Printlevel                                  ...      1
Contraction scheme used                     ... SEGMENTED contraction
Coulomb Range Separation                    ... NOT USED
Exchange Range Separation                   ... Long Range
   Mu parameter                             ...  0.250000
   Scaling (regular/separated)              ...  0.195728  0.804272
Finite Nucleus Model                        ... NOT USED
Auxiliary Coulomb fitting basis             ... AVAILABLE
   # of basis functions in Aux-J            ...    196
   # of shells in Aux-J                     ...     60
   Maximum angular momentum in Aux-J        ...      4
Auxiliary J/K fitting basis                 ... NOT available
Auxiliary Correlation fitting basis         ... NOT available
Auxiliary 'external' fitting basis          ... NOT available
Integral threshold                          ...     2.500000e-11
Primitive cut-off                           ...     2.500000e-12
Primitive pair pre-selection threshold      ...     2.500000e-12

Calculating pre-screening integrals         ... done (  0.0 sec) Dimension = 55
Organizing shell pair data                  ... done (  0.0 sec)
Shell pair information
Total number of shell pairs                 ...      1540
Shell pairs after pre-screening             ...      1510
Total number of primitive shell pairs       ...      4274
Primitive shell pairs kept                  ...      3581
          la=0 lb=0:    282 shell pairs
          la=1 lb=0:    360 shell pairs
          la=1 lb=1:    120 shell pairs
          la=2 lb=0:    276 shell pairs
          la=2 lb=1:    180 shell pairs
          la=2 lb=2:     78 shell pairs
          la=3 lb=0:     96 shell pairs
          la=3 lb=1:     60 shell pairs
          la=3 lb=2:     48 shell pairs
          la=3 lb=3:     10 shell pairs

Calculating one electron integrals          ... done (  0.0 sec)
Calculating RI/J V-Matrix + Cholesky decomp.... done (  0.1 sec)
Calculating Nuclear repulsion               ... done (  0.0 sec) ENN=    129.490697274421 Eh

SHARK setup successfully completed in   0.3 seconds

Maximum memory used throughout the entire GTOINT-calculation: 15.2 MB


           ************************************************************
           *        Program running with 18 parallel MPI-processes    *
           *              working on a common directory               *
           ************************************************************
-------------------------------------------------------------------------------
                                 ORCA SCF
-------------------------------------------------------------------------------

------------
SCF SETTINGS
------------
Hamiltonian:
 Density Functional     Method          .... DFT(GTOs)
 Exchange Functional    Exchange        .... WB97X-D3
 Correlation Functional Correlation     .... WB97X-D3
 Gradients option       PostSCFGGA      .... off
 Hybrid DFT is turned on
   Fraction HF Exchange ScalHFX         ....  0.195728
   Scaling of DF-GGA-X  ScalDFX         ....  0.000000
   Scaling of DF-GGA-C  ScalDFC         ....  1.000000
   Scaling of DF-LDA-C  ScalLDAC        ....  1.000000
   Perturbative correction              ....  0.000000
   Density functional embedding theory  .... OFF
 Long-range corrected/Screened/Range-Separated Hybrid DFT is turned on
   Amount of maximum screened exact exchange              ....  0.804272
   Range separation parameter mu (erf(mu*r12)/r12)        ....  0.250000
 RI-approximation to the Coulomb term is turned on
   Number of AuxJ basis functions       .... 196
   RIJ-COSX (HFX calculated with COS-X)).... on


General Settings:
 Integral files         IntName         .... /beegfs/scratch/ispackman/PFAS_EPR_calcs/benchmark/JChemEd_CF3_radical/CF3_radical_99.0_degrees_IN-PROGRESS/CF3_radical_99.0_degrees
 Hartree-Fock type      HFTyp           .... UHF
 Total Charge           Charge          ....    0
 Multiplicity           Mult            ....    2
 Number of Electrons    NEL             ....   33
 Basis Dimension        Dim             ....  157
 Nuclear Repulsion      ENuc            ....    129.4906972744 Eh

Convergence Acceleration:
 DIIS                   CNVDIIS         .... on
   Start iteration      DIISMaxIt       ....    12
   Startup error        DIISStart       ....  0.200000
   # of expansion vecs  DIISMaxEq       ....     5
   Bias factor          DIISBfac        ....   1.050
   Max. coefficient     DIISMaxC        ....  10.000
 Trust-Rad. Augm. Hess. CNVTRAH         .... auto
   Auto Start mean grad. ratio tolernc. ....  1.125000
   Auto Start start iteration           ....    20
   Auto Start num. interpolation iter.  ....    10
   Max. Number of Micro iterations      ....    16
   Max. Number of Macro iterations      .... Maxiter - #DIIS iter
   Number of Davidson start vectors     ....     2
   Converg. threshold I  (grad. norm)   ....   1.000e-05
   Converg. threshold II (energy diff.) ....   1.000e-08
   Grad. Scal. Fac. for Micro threshold ....   0.100
   Minimum threshold for Micro iter.    ....   0.010
   NR start threshold (gradient norm)   ....   0.001
   Initial trust radius                 ....   0.400
   Minimum AH scaling param. (alpha)    ....   1.000
   Maximum AH scaling param. (alpha)    .... 1000.000
   Orbital update algorithm             .... Taylor
   White noise on init. David. guess    .... on
   Maximum white noise                  ....   0.010
   Quad. conv. algorithm                .... NR
 SOSCF                  CNVSOSCF        .... off
 Level Shifting         CNVShift        .... on
   Level shift para.    LevelShift      ....    0.2500
   Turn off err/grad.   ShiftErr        ....    0.0010
 Zerner damping         CNVZerner       .... off
 Static damping         CNVDamp         .... on
   Fraction old density DampFac         ....    0.7000
   Max. Damping (<1)    DampMax         ....    0.9800
   Min. Damping (>=0)   DampMin         ....    0.0000
   Turn off err/grad.   DampErr         ....    0.1000
 Fernandez-Rico         CNVRico         .... off

SCF Procedure:
 Maximum # iterations   MaxIter         ....   125
 SCF integral mode      SCFMode         .... Direct
   Integral package                     .... SHARK and LIBINT hybrid scheme
 Reset frequency        DirectResetFreq ....    20
 Integral Threshold     Thresh          ....  2.500e-11 Eh
 Primitive CutOff       TCut            ....  2.500e-12 Eh

Convergence Tolerance:
 Convergence Check Mode ConvCheckMode   .... Total+1el-Energy
 Convergence forced     ConvForced      .... 0
 Energy Change          TolE            ....  1.000e-08 Eh
 1-El. energy change                    ....  1.000e-05 Eh
 DIIS Error             TolErr          ....  5.000e-07


Diagonalization of the overlap matrix:
Smallest eigenvalue                        ... 3.632e-04
Time for diagonalization                   ...    0.008 sec
Threshold for overlap eigenvalues          ... 1.000e-08
Number of eigenvalues below threshold      ... 0
Time for construction of square roots      ...    0.015 sec
Total time needed                          ...    0.024 sec

Time for model grid setup =    0.058 sec

------------------------------
INITIAL GUESS: MODEL POTENTIAL
------------------------------
Loading Hartree-Fock densities                     ... done
Calculating cut-offs                               ... done
Initializing the effective Hamiltonian             ... done
Setting up the integral package (SHARK)            ... done
Starting the Coulomb interaction                   ... done (   0.1 sec)
Reading the grid                                   ... done
Mapping shells                                     ... done
Starting the XC term evaluation                    ... done (   0.0 sec)
  promolecular density results
     # of electrons  =     33.000254441
     EX              =    -35.105147776
     EC              =     -1.149074725
     EX+EC           =    -36.254222502
Transforming the Hamiltonian                       ... done (   0.0 sec)
Diagonalizing the Hamiltonian                      ... done (   0.0 sec)
Back transforming the eigenvectors                 ... done (   0.0 sec)
Now organizing SCF variables                       ... done
                      ------------------
                      INITIAL GUESS DONE (   0.2 sec)
                      ------------------
-------------------
DFT GRID GENERATION
-------------------

General Integration Accuracy     IntAcc      ... 4.388
Radial Grid Type                 RadialGrid  ... OptM3 with GC (2021)
Angular Grid (max. ang.)         AngularGrid ... 4 (Lebedev-302)
Angular grid pruning method      GridPruning ... 4 (adaptive)
Weight generation scheme         WeightScheme... Becke
Basis function cutoff            BFCut       ... 1.0000e-11
Integration weight cutoff        WCut        ... 1.0000e-14
Angular grids for H and He will be reduced by one unit
Partially contracted basis set               ... off
Rotationally invariant grid construction     ... off

Total number of grid points                  ...    25777
Total number of batches                      ...      405
Average number of points per batch           ...       63
Average number of grid points per atom       ...     6444
Time for grid setup =    0.154 sec

--------------------
COSX GRID GENERATION
--------------------

GRIDX 1
-------
General Integration Accuracy     IntAcc      ... 3.816
Radial Grid Type                 RadialGrid  ... OptM3 with GC (2021)
Angular Grid (max. ang.)         AngularGrid ... 1 (Lebedev-50)
Angular grid pruning method      GridPruning ... 4 (adaptive)
Weight generation scheme         WeightScheme... Becke
Basis function cutoff            BFCut       ... 1.0000e-11
Integration weight cutoff        WCut        ... 1.0000e-14
Angular grids for H and He will be reduced by one unit
Partially contracted basis set               ... on
Rotationally invariant grid construction     ... off

Total number of grid points                  ...     3272
Total number of batches                      ...       53
Average number of points per batch           ...       61
Average number of grid points per atom       ...      818
UseSFitting                                  ... on

GRIDX 2
-------
General Integration Accuracy     IntAcc      ... 4.020
Radial Grid Type                 RadialGrid  ... OptM3 with GC (2021)
Angular Grid (max. ang.)         AngularGrid ... 2 (Lebedev-110)
Angular grid pruning method      GridPruning ... 4 (adaptive)
Weight generation scheme         WeightScheme... Becke
Basis function cutoff            BFCut       ... 1.0000e-11
Integration weight cutoff        WCut        ... 1.0000e-14
Angular grids for H and He will be reduced by one unit
Partially contracted basis set               ... on
Rotationally invariant grid construction     ... off

Total number of grid points                  ...     9123
Total number of batches                      ...      144
Average number of points per batch           ...       63
Average number of grid points per atom       ...     2281
UseSFitting                                  ... on

GRIDX 3
-------
General Integration Accuracy     IntAcc      ... 4.338
Radial Grid Type                 RadialGrid  ... OptM3 with GC (2021)
Angular Grid (max. ang.)         AngularGrid ... 3 (Lebedev-194)
Angular grid pruning method      GridPruning ... 4 (adaptive)
Weight generation scheme         WeightScheme... Becke
Basis function cutoff            BFCut       ... 1.0000e-11
Integration weight cutoff        WCut        ... 1.0000e-14
Angular grids for H and He will be reduced by one unit
Partially contracted basis set               ... on
Rotationally invariant grid construction     ... off

Total number of grid points                  ...    19683
Total number of batches                      ...      309
Average number of points per batch           ...       63
Average number of grid points per atom       ...     4921
UseSFitting                                  ... on

Time for X-Grid setup             =    0.362 sec

--------------
SCF ITERATIONS
--------------
ITER       Energy         Delta-E        Max-DP      RMS-DP      [F,P]     Damp
               ***  Starting incremental Fock matrix formation  ***
  0   -337.5230452812   0.000000000000 0.01813612  0.00041438  0.0695004 0.7000
  1   -337.5524822658  -0.029436984558 0.01076790  0.00027470  0.0325808 0.7000
                               ***Turning on DIIS***
  2   -337.5646467959  -0.012164530150 0.02594148  0.00051845  0.0168581 0.0000
  3   -337.5861719853  -0.021525189368 0.00668129  0.00015399  0.0150315 0.0000
  4   -337.5896602296  -0.003488244350 0.00500693  0.00008049  0.0034956 0.0000
  5   -337.5898747483  -0.000214518634 0.00290874  0.00004752  0.0020070 0.0000
  6   -337.5899395242  -0.000064775974 0.00243454  0.00004293  0.0008596 0.0000
               *** Restarting incremental Fock matrix formation ***
                                   *** Resetting DIIS ***
  7   -337.5899664276  -0.000026903378 0.00048593  0.00000751  0.0001879 0.0000
  8   -337.5899672773  -0.000000849652 0.00008480  0.00000213  0.0000998 0.0000
  9   -337.5899674820  -0.000000204711 0.00006087  0.00000157  0.0000958 0.0000
 10   -337.5899675878  -0.000000105810 0.00004785  0.00000059  0.0000119 0.0000
 11   -337.5899675905  -0.000000002699 0.00001246  0.00000015  0.0000019 0.0000
                            ***DIIS convergence achieved***

               *****************************************************
               *                     SUCCESS                       *
               *           SCF CONVERGED AFTER  12 CYCLES          *
               *****************************************************

Old exchange energy                            =    -10.543577862 Eh
New exchange energy                            =    -10.543564803 Eh
Exchange energy change after final integration =      0.000013059 Eh
Total energy after final integration           =   -337.589954532 Eh
Final COS-X integration done in                =     0.421 sec

----------------
TOTAL SCF ENERGY
----------------

Total Energy       :         -337.58995453 Eh           -9186.28968 eV

Components:
Nuclear Repulsion  :          129.49069727 Eh            3523.62101 eV
Electronic Energy  :         -467.08065181 Eh          -12709.91070 eV
One Electron Energy:         -725.94456846 Eh          -19753.95598 eV
Two Electron Energy:          258.86391665 Eh            7044.04528 eV
Max COSX asymmetry :            0.00000044 Eh               0.00001 eV

Virial components:
Potential Energy   :         -674.44401845 Eh          -18352.55477 eV
Kinetic Energy     :          336.85406392 Eh            9166.26508 eV
Virial Ratio       :            2.00218460


DFT components:
N(Alpha)           :       16.999883466559 electrons
N(Beta)            :       15.999892374435 electrons
N(Total)           :       32.999775840994 electrons
E(XC)              :      -26.220603630196 Eh       
DFET-embed. en.    :        0.000000000000 Eh       

---------------
SCF CONVERGENCE
---------------

  Last Energy change         ...   -5.8014e-10  Tolerance :   1.0000e-08
  Last MAX-Density change    ...    0.0000e+00  Tolerance :   1.0000e-07
  Last RMS-Density change    ...    0.0000e+00  Tolerance :   5.0000e-09
  Last DIIS Error            ...    7.8927e-07  Tolerance :   5.0000e-07

             **** THE GBW FILE WAS UPDATED (/beegfs/scratch/ispackman/PFAS_EPR_calcs/benchmark/JChemEd_CF3_radical/CF3_radical_99.0_degrees_IN-PROGRESS/CF3_radical_99.0_degrees.gbw) ****
             **** DENSITY /beegfs/scratch/ispackman/PFAS_EPR_calcs/benchmark/JChemEd_CF3_radical/CF3_radical_99.0_degrees_IN-PROGRESS/CF3_radical_99.0_degrees.scfp WAS UPDATED ****
             **** ENERGY FILE WAS UPDATED (/beegfs/scratch/ispackman/PFAS_EPR_calcs/benchmark/JChemEd_CF3_radical/CF3_radical_99.0_degrees_IN-PROGRESS/CF3_radical_99.0_degrees.en.tmp) ****
----------------------
UHF SPIN CONTAMINATION
----------------------

Warning: in a DFT calculation there is little theoretical justification to 
         calculate <S**2> as in Hartree-Fock theory. We will do it anyways
         but you should keep in mind that the values have only limited relevance

Expectation value of <S**2>     :     0.752198
Ideal value S*(S+1) for S=0.5   :     0.750000
Deviation                       :     0.002198

             **** THE GBW FILE WAS UPDATED (/beegfs/scratch/ispackman/PFAS_EPR_calcs/benchmark/JChemEd_CF3_radical/CF3_radical_99.0_degrees_IN-PROGRESS/CF3_radical_99.0_degrees.gbw) ****
             **** DENSITY /beegfs/scratch/ispackman/PFAS_EPR_calcs/benchmark/JChemEd_CF3_radical/CF3_radical_99.0_degrees_IN-PROGRESS/CF3_radical_99.0_degrees.scfp WAS UPDATED ****
----------------
ORBITAL ENERGIES
----------------
                 SPIN UP ORBITALS
  NO   OCC          E(Eh)            E(eV) 
   0   1.0000     -24.836361      -675.8317 
   1   1.0000     -24.836359      -675.8317 
   2   1.0000     -24.836355      -675.8316 
   3   1.0000     -10.552498      -287.1481 
   4   1.0000      -1.487905       -40.4880 
   5   1.0000      -1.363306       -37.0974 
   6   1.0000      -1.363303       -37.0974 
   7   1.0000      -0.838277       -22.8107 
   8   1.0000      -0.722996       -19.6737 
   9   1.0000      -0.722988       -19.6735 
  10   1.0000      -0.709057       -19.2944 
  11   1.0000      -0.605734       -16.4828 
  12   1.0000      -0.605726       -16.4826 
  13   1.0000      -0.539756       -14.6875 
  14   1.0000      -0.539754       -14.6875 
  15   1.0000      -0.520572       -14.1655 
  16   1.0000      -0.440767       -11.9939 
  17   0.0000       0.072549         1.9742 
  18   0.0000       0.105198         2.8626 
  19   0.0000       0.105198         2.8626 
  20   0.0000       0.111680         3.0390 
  21   0.0000       0.159166         4.3311 
  22   0.0000       0.159167         4.3311 
  23   0.0000       0.172571         4.6959 
  24   0.0000       0.172571         4.6959 
  25   0.0000       0.191542         5.2121 
  26   0.0000       0.209856         5.7105 
  27   0.0000       0.209863         5.7107 
  28   0.0000       0.241167         6.5625 
  29   0.0000       0.286861         7.8059 
  30   0.0000       0.347219         9.4483 
  31   0.0000       0.347224         9.4485 
  32   0.0000       0.353431         9.6174 
  33   0.0000       0.383082        10.4242 
  34   0.0000       0.383082        10.4242 
  35   0.0000       0.402479        10.9520 
  36   0.0000       0.402480        10.9520 
  37   0.0000       0.403403        10.9772 
  38   0.0000       0.430157        11.7052 
  39   0.0000       0.486242        13.2313 
  40   0.0000       0.486249        13.2315 
  41   0.0000       0.530832        14.4447 
  42   0.0000       0.569251        15.4901 
  43   0.0000       0.625166        17.0116 
  44   0.0000       0.625168        17.0117 
  45   0.0000       0.699706        19.0400 
  46   0.0000       0.699711        19.0401 
  47   0.0000       0.708762        19.2864 
  48   0.0000       0.727241        19.7892 
  49   0.0000       0.737569        20.0703 
  50   0.0000       0.737577        20.0705 
  51   0.0000       0.769609        20.9421 
  52   0.0000       0.794456        21.6182 
  53   0.0000       0.794456        21.6183 
  54   0.0000       0.870520        23.6881 
  55   0.0000       0.902718        24.5642 
  56   0.0000       0.902722        24.5643 
  57   0.0000       0.929962        25.3056 
  58   0.0000       0.972984        26.4763 
  59   0.0000       0.972993        26.4765 
  60   0.0000       1.079051        29.3625 
  61   0.0000       1.079054        29.3626 
  62   0.0000       1.114331        30.3225 
  63   0.0000       1.161669        31.6106 
  64   0.0000       1.161681        31.6109 
  65   0.0000       1.168981        31.8096 
  66   0.0000       1.243439        33.8357 
  67   0.0000       1.250709        34.0335 
  68   0.0000       1.250710        34.0335 
  69   0.0000       1.305969        35.5372 
  70   0.0000       1.305971        35.5373 
  71   0.0000       1.346075        36.6286 
  72   0.0000       1.460935        39.7541 
  73   0.0000       1.460962        39.7548 
  74   0.0000       1.654217        45.0135 
  75   0.0000       2.125116        57.8273 
  76   0.0000       2.168228        59.0005 
  77   0.0000       2.168246        59.0010 
  78   0.0000       2.199065        59.8396 
  79   0.0000       2.213083        60.2210 
  80   0.0000       2.217836        60.3504 
  81   0.0000       2.217858        60.3510 
  82   0.0000       2.330032        63.4034 
  83   0.0000       2.330067        63.4043 
  84   0.0000       2.433872        66.2290 
  85   0.0000       2.464798        67.0706 
  86   0.0000       2.464804        67.0707 
  87   0.0000       2.593289        70.5670 
  88   0.0000       2.593297        70.5672 
  89   0.0000       2.869708        78.0887 
  90   0.0000       2.929908        79.7268 
  91   0.0000       2.929944        79.7278 
  92   0.0000       2.949660        80.2643 
  93   0.0000       3.055581        83.1466 
  94   0.0000       3.179869        86.5286 
  95   0.0000       3.179933        86.5304 
  96   0.0000       3.186676        86.7139 
  97   0.0000       3.292595        89.5961 
  98   0.0000       3.292668        89.5981 
  99   0.0000       3.401995        92.5730 
 100   0.0000       3.402011        92.5734 
 101   0.0000       3.441882        93.6584 
 102   0.0000       3.633962        98.8851 
 103   0.0000       3.633969        98.8853 
 104   0.0000       3.687318       100.3370 
 105   0.0000       3.820988       103.9744 
 106   0.0000       3.939459       107.1981 
 107   0.0000       3.954199       107.5992 
 108   0.0000       3.954261       107.6009 
 109   0.0000       4.105646       111.7203 
 110   0.0000       4.105660       111.7207 
 111   0.0000       4.208922       114.5306 
 112   0.0000       4.300642       117.0264 
 113   0.0000       4.300687       117.0276 
 114   0.0000       5.395393       146.8161 
 115   0.0000       5.395414       146.8167 
 116   0.0000       5.497193       149.5862 
 117   0.0000       6.912776       188.1062 
 118   0.0000       6.912796       188.1068 
 119   0.0000       6.916887       188.2181 
 120   0.0000       6.927514       188.5072 
 121   0.0000       6.927549       188.5082 
 122   0.0000       6.932206       188.6349 
 123   0.0000       6.937297       188.7734 
 124   0.0000       6.937343       188.7747 
 125   0.0000       6.955858       189.2785 
 126   0.0000       7.062960       192.1929 
 127   0.0000       7.063045       192.1952 
 128   0.0000       7.165902       194.9941 
 129   0.0000       7.250208       197.2882 
 130   0.0000       7.250213       197.2883 
 131   0.0000       7.265252       197.6976 
 132   0.0000       7.483967       203.6491 
 133   0.0000       7.489889       203.8103 
 134   0.0000       7.597285       206.7326 
 135   0.0000       7.597291       206.7328 
 136   0.0000       7.782591       211.7751 
 137   0.0000       7.782669       211.7772 
 138   0.0000       8.521943       231.8939 
 139   0.0000       8.521966       231.8945 
 140   0.0000       8.584016       233.5830 
 141   0.0000       8.586650       233.6546 
 142   0.0000       8.617663       234.4985 
 143   0.0000       8.617744       234.5007 
 144   0.0000       8.832649       240.3486 
 145   0.0000       8.839551       240.5364 
 146   0.0000       8.839570       240.5369 
 147   0.0000       9.039215       245.9695 
 148   0.0000       9.125937       248.3294 
 149   0.0000       9.125995       248.3309 
 150   0.0000       9.260699       251.9964 
 151   0.0000       9.400147       255.7910 
 152   0.0000       9.400193       255.7923 
 153   0.0000      22.670883       616.9061 
 154   0.0000      57.368683      1561.0812 
 155   0.0000      57.368714      1561.0821 
 156   0.0000      57.451611      1563.3378 

                 SPIN DOWN ORBITALS
  NO   OCC          E(Eh)            E(eV) 
   0   1.0000     -24.833535      -675.7548 
   1   1.0000     -24.833533      -675.7548 
   2   1.0000     -24.833521      -675.7545 
   3   1.0000     -10.539589      -286.7968 
   4   1.0000      -1.479170       -40.2503 
   5   1.0000      -1.354680       -36.8627 
   6   1.0000      -1.354677       -36.8626 
   7   1.0000      -0.820109       -22.3163 
   8   1.0000      -0.712512       -19.3884 
   9   1.0000      -0.712506       -19.3883 
  10   1.0000      -0.667827       -18.1725 
  11   1.0000      -0.594001       -16.1636 
  12   1.0000      -0.593993       -16.1634 
  13   1.0000      -0.532252       -14.4833 
  14   1.0000      -0.532250       -14.4832 
  15   1.0000      -0.517279       -14.0759 
  16   0.0000      -0.089391        -2.4324 
  17   0.0000       0.082859         2.2547 
  18   0.0000       0.108490         2.9522 
  19   0.0000       0.108491         2.9522 
  20   0.0000       0.126117         3.4318 
  21   0.0000       0.164625         4.4797 
  22   0.0000       0.164626         4.4797 
  23   0.0000       0.177913         4.8413 
  24   0.0000       0.177914         4.8413 
  25   0.0000       0.202192         5.5019 
  26   0.0000       0.232760         6.3337 
  27   0.0000       0.232762         6.3338 
  28   0.0000       0.241854         6.5812 
  29   0.0000       0.292601         7.9621 
  30   0.0000       0.365945         9.9579 
  31   0.0000       0.367074         9.9886 
  32   0.0000       0.367077         9.9887 
  33   0.0000       0.384323        10.4580 
  34   0.0000       0.384323        10.4580 
  35   0.0000       0.405204        11.0262 
  36   0.0000       0.405205        11.0262 
  37   0.0000       0.410953        11.1826 
  38   0.0000       0.440012        11.9733 
  39   0.0000       0.487857        13.2753 
  40   0.0000       0.487863        13.2754 
  41   0.0000       0.534142        14.5347 
  42   0.0000       0.575807        15.6685 
  43   0.0000       0.627019        17.0620 
  44   0.0000       0.627025        17.0622 
  45   0.0000       0.701016        19.0756 
  46   0.0000       0.701019        19.0757 
  47   0.0000       0.709010        19.2932 
  48   0.0000       0.737664        20.0729 
  49   0.0000       0.740112        20.1395 
  50   0.0000       0.740123        20.1398 
  51   0.0000       0.768815        20.9205 
  52   0.0000       0.796433        21.6720 
  53   0.0000       0.796434        21.6721 
  54   0.0000       0.871550        23.7161 
  55   0.0000       0.905104        24.6291 
  56   0.0000       0.905107        24.6292 
  57   0.0000       0.944770        25.7085 
  58   0.0000       0.980470        26.6799 
  59   0.0000       0.980481        26.6803 
  60   0.0000       1.082217        29.4486 
  61   0.0000       1.082220        29.4487 
  62   0.0000       1.119063        30.4513 
  63   0.0000       1.163819        31.6691 
  64   0.0000       1.163836        31.6696 
  65   0.0000       1.182197        32.1692 
  66   0.0000       1.245238        33.8846 
  67   0.0000       1.261653        34.3313 
  68   0.0000       1.261654        34.3314 
  69   0.0000       1.313056        35.7301 
  70   0.0000       1.313079        35.7307 
  71   0.0000       1.346459        36.6390 
  72   0.0000       1.462717        39.8026 
  73   0.0000       1.462745        39.8033 
  74   0.0000       1.709165        46.5088 
  75   0.0000       2.134516        58.0831 
  76   0.0000       2.177847        59.2622 
  77   0.0000       2.177878        59.2631 
  78   0.0000       2.202529        59.9338 
  79   0.0000       2.223195        60.4962 
  80   0.0000       2.226118        60.5758 
  81   0.0000       2.226139        60.5763 
  82   0.0000       2.334648        63.5290 
  83   0.0000       2.334682        63.5299 
  84   0.0000       2.435229        66.2659 
  85   0.0000       2.470827        67.2346 
  86   0.0000       2.470830        67.2347 
  87   0.0000       2.618774        71.2605 
  88   0.0000       2.618790        71.2609 
  89   0.0000       2.877219        78.2931 
  90   0.0000       2.934770        79.8591 
  91   0.0000       2.934804        79.8601 
  92   0.0000       2.954251        80.3893 
  93   0.0000       3.073554        83.6357 
  94   0.0000       3.194004        86.9133 
  95   0.0000       3.194049        86.9145 
  96   0.0000       3.239836        88.1604 
  97   0.0000       3.320244        90.3484 
  98   0.0000       3.320300        90.3500 
  99   0.0000       3.446938        93.7959 
 100   0.0000       3.446939        93.7960 
 101   0.0000       3.451147        93.9105 
 102   0.0000       3.651199        99.3542 
 103   0.0000       3.651221        99.3548 
 104   0.0000       3.723167       101.3125 
 105   0.0000       3.829829       104.2150 
 106   0.0000       3.946190       107.3813 
 107   0.0000       3.983560       108.3982 
 108   0.0000       3.983606       108.3994 
 109   0.0000       4.113900       111.9449 
 110   0.0000       4.113905       111.9450 
 111   0.0000       4.221652       114.8770 
 112   0.0000       4.311495       117.3218 
 113   0.0000       4.311549       117.3232 
 114   0.0000       5.404643       147.0678 
 115   0.0000       5.404670       147.0686 
 116   0.0000       5.509787       149.9289 
 117   0.0000       6.918482       188.2615 
 118   0.0000       6.918503       188.2620 
 119   0.0000       6.922261       188.3643 
 120   0.0000       6.930507       188.5887 
 121   0.0000       6.930537       188.5895 
 122   0.0000       6.937613       188.7820 
 123   0.0000       6.942793       188.9230 
 124   0.0000       6.942833       188.9241 
 125   0.0000       6.958056       189.3383 
 126   0.0000       7.068272       192.3375 
 127   0.0000       7.068354       192.3397 
 128   0.0000       7.170357       195.1153 
 129   0.0000       7.258141       197.5041 
 130   0.0000       7.258146       197.5042 
 131   0.0000       7.271626       197.8710 
 132   0.0000       7.491978       203.8671 
 133   0.0000       7.499298       204.0663 
 134   0.0000       7.603847       206.9112 
 135   0.0000       7.603859       206.9115 
 136   0.0000       7.790589       211.9927 
 137   0.0000       7.790668       211.9949 
 138   0.0000       8.529520       232.1000 
 139   0.0000       8.529541       232.1006 
 140   0.0000       8.592160       233.8046 
 141   0.0000       8.596818       233.9313 
 142   0.0000       8.627205       234.7582 
 143   0.0000       8.627286       234.7604 
 144   0.0000       8.837289       240.4749 
 145   0.0000       8.849140       240.7973 
 146   0.0000       8.849162       240.7980 
 147   0.0000       9.048040       246.2097 
 148   0.0000       9.130596       248.4561 
 149   0.0000       9.130645       248.4575 
 150   0.0000       9.266258       252.1477 
 151   0.0000       9.406944       255.9760 
 152   0.0000       9.406989       255.9772 
 153   0.0000      22.694087       617.5375 
 154   0.0000      57.371479      1561.1573 
 155   0.0000      57.371511      1561.1582 
 156   0.0000      57.454437      1563.4147 

                    ********************************
                    * MULLIKEN POPULATION ANALYSIS *
                    ********************************

--------------------------------------------
MULLIKEN ATOMIC CHARGES AND SPIN POPULATIONS
--------------------------------------------
   0 C :    0.569980    0.779411
   1 F :   -0.189939    0.073565
   2 F :   -0.190020    0.073512
   3 F :   -0.190020    0.073512
Sum of atomic charges         :   -0.0000000
Sum of atomic spin populations:    1.0000000

-----------------------------------------------------
MULLIKEN REDUCED ORBITAL CHARGES AND SPIN POPULATIONS
-----------------------------------------------------
CHARGE
  0 C s       :     3.185040  s :     3.185040
      pz      :     0.824650  p :     1.911600
      px      :     0.543472
      py      :     0.543478
      dz2     :     0.061749  d :     0.289630
      dxz     :     0.046367
      dyz     :     0.046377
      dx2y2   :     0.067567
      dxy     :     0.067571
      f0      :     0.001511  f :     0.043750
      f+1     :     0.006940
      f-1     :     0.006940
      f+2     :     0.007602
      f-2     :     0.007607
      f+3     :     0.003855
      f-3     :     0.009295
  1 F s       :     3.953294  s :     3.953294
      pz      :     1.719913  p :     5.227305
      px      :     1.578825
      py      :     1.928566
      dz2     :     0.000681  d :     0.008485
      dxz     :     0.005248
      dyz     :     0.001778
      dx2y2   :     0.004180
      dxy     :    -0.003403
      f0      :     0.000085  f :     0.000855
      f+1     :     0.000181
      f-1     :     0.000007
      f+2     :     0.000225
      f-2     :     0.000078
      f+3     :     0.000148
      f-3     :     0.000131
  2 F s       :     3.953349  s :     3.953349
      pz      :     1.719890  p :     5.227351
      px      :     1.841154
      py      :     1.666307
      dz2     :     0.000677  d :     0.008466
      dxz     :     0.002644
      dyz     :     0.004378
      dx2y2   :    -0.001508
      dxy     :     0.002276
      f0      :     0.000085  f :     0.000855
      f+1     :     0.000050
      f-1     :     0.000138
      f+2     :     0.000115
      f-2     :     0.000188
      f+3     :     0.000148
      f-3     :     0.000131
  3 F s       :     3.953349  s :     3.953349
      pz      :     1.719890  p :     5.227351
      px      :     1.841154
      py      :     1.666306
      dz2     :     0.000677  d :     0.008466
      dxz     :     0.002644
      dyz     :     0.004378
      dx2y2   :    -0.001508
      dxy     :     0.002276
      f0      :     0.000085  f :     0.000855
      f+1     :     0.000050
      f-1     :     0.000138
      f+2     :     0.000115
      f-2     :     0.000188
      f+3     :     0.000148
      f-3     :     0.000131

SPIN
  0 C s       :     0.278102  s :     0.278102
      pz      :     0.466377  p :     0.492437
      px      :     0.013019
      py      :     0.013041
      dz2     :     0.014315  d :     0.009603
      dxz     :    -0.001437
      dyz     :    -0.001438
      dx2y2   :    -0.000920
      dxy     :    -0.000916
      f0      :    -0.000015  f :    -0.000730
      f+1     :    -0.000316
      f-1     :    -0.000315
      f+2     :    -0.000210
      f-2     :    -0.000211
      f+3     :     0.000297
      f-3     :     0.000040
  1 F s       :     0.003146  s :     0.003146
      pz      :     0.073114  p :     0.068901
      px      :    -0.002980
      py      :    -0.001233
      dz2     :    -0.000141  d :     0.001489
      dxz     :     0.000945
      dyz     :    -0.000017
      dx2y2   :     0.000807
      dxy     :    -0.000105
      f0      :     0.000003  f :     0.000029
      f+1     :     0.000014
      f-1     :     0.000001
      f+2     :     0.000002
      f-2     :     0.000001
      f+3     :     0.000008
      f-3     :    -0.000000
  2 F s       :     0.003137  s :     0.003137
      pz      :     0.073064  p :     0.068853
      px      :    -0.001665
      py      :    -0.002546
      dz2     :    -0.000141  d :     0.001493
      dxz     :     0.000224
      dyz     :     0.000704
      dx2y2   :     0.000123
      dxy     :     0.000582
      f0      :     0.000003  f :     0.000029
      f+1     :     0.000004
      f-1     :     0.000011
      f+2     :     0.000002
      f-2     :     0.000002
      f+3     :     0.000008
      f-3     :    -0.000000
  3 F s       :     0.003137  s :     0.003137
      pz      :     0.073064  p :     0.068853
      px      :    -0.001665
      py      :    -0.002546
      dz2     :    -0.000141  d :     0.001493
      dxz     :     0.000224
      dyz     :     0.000704
      dx2y2   :     0.000123
      dxy     :     0.000582
      f0      :     0.000003  f :     0.000029
      f+1     :     0.000004
      f-1     :     0.000011
      f+2     :     0.000002
      f-2     :     0.000002
      f+3     :     0.000008
      f-3     :    -0.000000


                     *******************************
                     * LOEWDIN POPULATION ANALYSIS *
                     *******************************

-------------------------------------------
LOEWDIN ATOMIC CHARGES AND SPIN POPULATIONS
-------------------------------------------
   0 C :   -0.334813    0.625904
   1 F :    0.111601    0.124715
   2 F :    0.111606    0.124690
   3 F :    0.111606    0.124690

----------------------------------------------------
LOEWDIN REDUCED ORBITAL CHARGES AND SPIN POPULATIONS
----------------------------------------------------
CHARGE
  0 C s       :     2.711258  s :     2.711258
      pz      :     0.804163  p :     2.160361
      px      :     0.678086
      py      :     0.678111
      dz2     :     0.172180  d :     1.181048
      dxz     :     0.215364
      dyz     :     0.215371
      dx2y2   :     0.289066
      dxy     :     0.289067
      f0      :     0.016434  f :     0.282146
      f+1     :     0.034260
      f-1     :     0.034260
      f+2     :     0.056220
      f-2     :     0.056224
      f+3     :     0.034372
      f-3     :     0.050376
  1 F s       :     3.550647  s :     3.550647
      pz      :     1.666838  p :     5.095382
      px      :     1.639929
      py      :     1.788615
      dz2     :     0.041631  d :     0.240332
      dxz     :     0.067013
      dyz     :     0.012210
      dx2y2   :     0.043594
      dxy     :     0.075885
      f0      :     0.000173  f :     0.002037
      f+1     :     0.000525
      f-1     :     0.000004
      f+2     :     0.000490
      f-2     :     0.000180
      f+3     :     0.000306
      f-3     :     0.000359
  2 F s       :     3.550647  s :     3.550647
      pz      :     1.666850  p :     5.095384
      px      :     1.751439
      py      :     1.677095
      dz2     :     0.041630  d :     0.240326
      dxz     :     0.025910
      dyz     :     0.053311
      dx2y2   :     0.067810
      dxy     :     0.051665
      f0      :     0.000174  f :     0.002037
      f+1     :     0.000134
      f-1     :     0.000395
      f+2     :     0.000258
      f-2     :     0.000412
      f+3     :     0.000306
      f-3     :     0.000359
  3 F s       :     3.550647  s :     3.550647
      pz      :     1.666850  p :     5.095384
      px      :     1.751439
      py      :     1.677094
      dz2     :     0.041630  d :     0.240326
      dxz     :     0.025910
      dyz     :     0.053311
      dx2y2   :     0.067810
      dxy     :     0.051665
      f0      :     0.000174  f :     0.002037
      f+1     :     0.000134
      f-1     :     0.000395
      f+2     :     0.000258
      f-2     :     0.000412
      f+3     :     0.000306
      f-3     :     0.000359

SPIN
  0 C s       :     0.160370  s :     0.160370
      pz      :     0.397429  p :     0.409159
      px      :     0.005859
      py      :     0.005870
      dz2     :     0.056733  d :     0.048166
      dxz     :    -0.003634
      dyz     :    -0.003635
      dx2y2   :    -0.000650
      dxy     :    -0.000647
      f0      :     0.001814  f :     0.008209
      f+1     :    -0.000223
      f-1     :    -0.000222
      f+2     :    -0.000178
      f-2     :    -0.000180
      f+3     :     0.007196
      f-3     :     0.000003
  1 F s       :     0.014756  s :     0.014756
      pz      :     0.076534  p :     0.081636
      px      :     0.005739
      py      :    -0.000637
      dz2     :     0.010942  d :     0.028012
      dxz     :     0.016247
      dyz     :    -0.000208
      dx2y2   :     0.001037
      dxy     :    -0.000006
      f0      :     0.000003  f :     0.000311
      f+1     :     0.000247
      f-1     :     0.000001
      f+2     :     0.000028
      f-2     :     0.000001
      f+3     :     0.000029
      f-3     :     0.000002
  2 F s       :     0.014756  s :     0.014756
      pz      :     0.076501  p :     0.081610
      px      :     0.000959
      py      :     0.004149
      dz2     :     0.010943  d :     0.028014
      dxz     :     0.003906
      dyz     :     0.012134
      dx2y2   :     0.000255
      dxy     :     0.000776
      f0      :     0.000003  f :     0.000311
      f+1     :     0.000062
      f-1     :     0.000186
      f+2     :     0.000008
      f-2     :     0.000021
      f+3     :     0.000029
      f-3     :     0.000002
  3 F s       :     0.014756  s :     0.014756
      pz      :     0.076501  p :     0.081610
      px      :     0.000959
      py      :     0.004149
      dz2     :     0.010943  d :     0.028014
      dxz     :     0.003906
      dyz     :     0.012134
      dx2y2   :     0.000255
      dxy     :     0.000776
      f0      :     0.000003  f :     0.000311
      f+1     :     0.000062
      f-1     :     0.000186
      f+2     :     0.000008
      f-2     :     0.000021
      f+3     :     0.000029
      f-3     :     0.000002


                      *****************************
                      * MAYER POPULATION ANALYSIS *
                      *****************************

  NA   - Mulliken gross atomic population
  ZA   - Total nuclear charge
  QA   - Mulliken gross atomic charge
  VA   - Mayer's total valence
  BVA  - Mayer's bonded valence
  FA   - Mayer's free valence

  ATOM       NA         ZA         QA         VA         BVA        FA
  0 C      5.4300     6.0000     0.5700     3.7958     3.1803     0.6154
  1 F      9.1899     9.0000    -0.1899     1.0233     1.0190     0.0043
  2 F      9.1900     9.0000    -0.1900     1.0230     1.0187     0.0043
  3 F      9.1900     9.0000    -0.1900     1.0230     1.0186     0.0043

  Mayer bond orders larger than 0.100000
B(  0-C ,  1-F ) :   1.0603 B(  0-C ,  2-F ) :   1.0600 B(  0-C ,  3-F ) :   1.0600 


-------
TIMINGS
-------

Total SCF time: 0 days 0 hours 0 min 11 sec 

Total time                  ....      11.318 sec
Sum of individual times     ....      10.430 sec  ( 92.2%)

Fock matrix formation       ....       8.787 sec  ( 77.6%)
  Split-RI-J                ....       1.166 sec  ( 13.3% of F)
  Chain of spheres X        ....       2.937 sec  ( 33.4% of F)
  XC integration            ....       1.927 sec  ( 21.9% of F)
    Basis function eval.    ....       0.118 sec  (  6.1% of XC)
    Density eval.           ....       0.150 sec  (  7.8% of XC)
    XC-Functional eval.     ....       0.066 sec  (  3.4% of XC)
    XC-Potential eval.      ....       0.302 sec  ( 15.7% of XC)
Diagonalization             ....       0.350 sec  (  3.1%)
Density matrix formation    ....       0.013 sec  (  0.1%)
Population analysis         ....       0.134 sec  (  1.2%)
Initial guess               ....       0.136 sec  (  1.2%)
Orbital Transformation      ....       0.000 sec  (  0.0%)
Orbital Orthonormalization  ....       0.000 sec  (  0.0%)
DIIS solution               ....       0.437 sec  (  3.9%)
Grid generation             ....       0.573 sec  (  5.1%)

Maximum memory used throughout the entire SCF-calculation: 63.2 MB


-------------------------------------------------------------------------------
                          DFT DISPERSION CORRECTION                            
                                                                               
                              DFTD3 V3.1  Rev 1                                
                              USING zero damping                               
-------------------------------------------------------------------------------
The omegaB97X-D3 functional is recognized. Fit by Chai et al.
Active option DFTDOPT                   ...         3   

molecular C6(AA) [au] = 165.522866 


            DFT-D V3
 parameters
 s6 scaling factor         :     1.0000 
 rs6 scaling factor        :     1.2810 
 s8 scaling factor         :     1.0000 
 rs8 scaling factor        :     1.0940 
 Damping factor alpha6     :    14.0000 
 Damping factor alpha8     :    16.0000 
 ad hoc parameters k1-k3   :    16.0000     1.3333    -4.0000 

 Edisp/kcal,au: -0.027382729061  -0.000043637152 
 E6   /kcal   :  -0.003470532 
 E8   /kcal   :  -0.023912197 
 % E8         :  87.325836461 

-------------------------   ----------------
Dispersion correction           -0.000043637
-------------------------   ----------------


-------------------------   --------------------
FINAL SINGLE POINT ENERGY      -337.589998169373
-------------------------   --------------------



           ************************************************************
           *        Program running with 18 parallel MPI-processes    *
           *              working on a common directory               *
           ************************************************************
------------------------------------------------------------------------------
                         ORCA SCF GRADIENT CALCULATION
------------------------------------------------------------------------------

 ... reading COSX grid (gridx3)
Gradient of the Kohn-Sham DFT energy:
Kohn-Sham wavefunction type      ... UKS
Hartree-Fock exchange scaling    ...    0.196
Number of operators              ...    2
Number of atoms                  ...    4
Basis set dimensions             ...  157
Integral neglect threshold       ... 2.5e-11
Integral primitive cutoff        ... 2.5e-12
SHARK Integral package           ... ON

Nuc. rep. gradient       (SHARK) ... done (  0.0 sec)
HCore & Overlap gradient (SHARK) ... done (  0.0 sec)
RI-J gradient            (SHARK) ... done (  0.2 sec)
COSX-gradient                    ... done (  0.5 sec)
Exchange-correlation gradient    ... done
Dispersion correction            ... done

------------------
CARTESIAN GRADIENT
------------------

WARNING: THERE ARE 3 CONSTRAINED CARTESIAN COORDINATES
   1   C   :   -0.000207463   -0.000000043    0.118210770
   2   F   :   -0.066884857    0.000000122   -0.039629593
   3   F   :    0.033674616   -0.057760268   -0.039178791
   4   F   :    0.033674766    0.057760462   -0.039178778

Difference to translation invariance:
           :    0.0002570614    0.0000002725    0.0002236077

Difference to rotation invariance:
           :    0.0000003523    0.0004311814    0.0000003367

Norm of the cartesian gradient     ...    0.1789646929
RMS gradient                       ...    0.0516626568
MAX gradient                       ...    0.1182107697

-------
TIMINGS
-------

Total SCF gradient time            ...        1.167 sec

One electron gradient       ....       0.014 sec  (  1.2%)
RI-J Coulomb gradient       ....       0.174 sec  ( 14.9%)
COSX gradient               ....       0.454 sec  ( 38.9%)
XC gradient                 ....       0.164 sec  ( 14.0%)

Maximum memory used throughout the entire SCFGRAD-calculation: 37.2 MB
------------------------------------------------------------------------------
                         ORCA GEOMETRY RELAXATION STEP
------------------------------------------------------------------------------

Reading the OPT-File                    .... done
Getting information on internals        .... done
Copying old internal coords+grads       .... done
Making the new internal coordinates     .... (new redundants).... done
Validating the new internal coordinates .... (new redundants).... done
Calculating the B-matrix                .... done
Calculating the G,G- and P matrices     .... done
Transforming gradient to internals      .... done
Projecting the internal gradient        .... done
Number of atoms                         ....   4
Number of internal coordinates          ....   7
Current Energy                          ....  -337.589998169 Eh
Current gradient norm                   ....     0.178964693 Eh/bohr
Maximum allowed component of the step   ....  0.300
Current trust radius                    ....  0.300
Evaluating the initial hessian          ....  (Almloef) done
Projecting the Hessian                  .... done
Forming the augmented Hessian           .... done
Diagonalizing the augmented Hessian     .... done
Last element of RFO vector              ....  0.995056093
Lowest eigenvalues of augmented Hessian:
 -0.006891325  0.684895726  0.684895726  0.691787051 1000.000000000
Length of the computed step             ....  0.099807953
The final length of the internal step   ....  0.099807953
Converting the step to cartesian space:
 Initial RMS(Int)=    0.0377238604
Transforming coordinates:
 Iter   0:  RMS(Cart)=    0.0262208434 RMS(Int)=    0.0377238604
 Iter   1:  RMS(Cart)=    0.0000000000 RMS(Int)=    0.0000000000
Imposing constraints:
 Iter   0:  RMS(Cart)=    0.0000000002 RMS(Int)=    0.0000000003
CONVERGED
done
Storing new coordinates                 .... done

                                .--------------------.
          ----------------------|Geometry convergence|-------------------------
          Item                value                   Tolerance       Converged
          ---------------------------------------------------------------------
          RMS gradient        0.0260968781            0.0001000000      NO
          MAX gradient        0.0398683928            0.0003000000      NO
          RMS step            0.0377238604            0.0020000000      NO
          MAX step            0.0576310192            0.0040000000      NO
          ........................................................
          Max(Bonds)      0.0305      Max(Angles)    0.00
          Max(Dihed)        0.00      Max(Improp)    0.00
          ---------------------------------------------------------------------

The optimization has not yet converged - more geometry cycles are needed


    ---------------------------------------------------------------------------
                         Redundant Internal Coordinates
                            (Angstroem and degrees)

        Definition                    Value    dE/dq     Step     New-Value
    ----------------------------------------------------------------------------
     1. B(F   1,C   0)                1.3150 -0.039854  0.0305    1.3455   
     2. B(F   2,C   0)                1.3150 -0.039868  0.0305    1.3455   
     3. B(F   3,C   0)                1.3150 -0.039868  0.0305    1.3455   
     4. A(F   2,C   0,F   3)           99.00 -0.114737   -0.00     99.00 C 
     5. A(F   1,C   0,F   2)           99.00 -0.052449   -0.00     99.00 C 
     6. A(F   1,C   0,F   3)           99.00 -0.052449    0.00     99.00 C 
     7. I(F   1,F   3,F   2,C   0)     76.06  0.098856    0.00     76.06   
    ----------------------------------------------------------------------------

         *************************************************************
         *                GEOMETRY OPTIMIZATION CYCLE   2            *
         *************************************************************
---------------------------------
CARTESIAN COORDINATES (ANGSTROEM)
---------------------------------
  C      0.000003    0.000000    0.010945
  F      1.181394    0.000000   -0.632987
  F     -0.590699    1.023124   -0.632988
  F     -0.590699   -1.023124   -0.632988

----------------------------
CARTESIAN COORDINATES (A.U.)
----------------------------
  NO LB      ZA    FRAG     MASS         X           Y           Z
   0 C     6.0000    0    12.011    0.000006    0.000000    0.020684
   1 F     9.0000    0    18.998    2.232512    0.000000   -1.196171
   2 F     9.0000    0    18.998   -1.116259    1.933424   -1.196175
   3 F     9.0000    0    18.998   -1.116259   -1.933424   -1.196175

--------------------------------
INTERNAL COORDINATES (ANGSTROEM)
--------------------------------
 C      0   0   0     0.000000000000     0.00000000     0.00000000
 F      1   0   0     1.345486215771     0.00000000     0.00000000
 F      1   2   0     1.345496919549    99.00000001     0.00000000
 F      1   2   3     1.345497021856    99.00000001   100.68704029

---------------------------
INTERNAL COORDINATES (A.U.)
---------------------------
 C      0   0   0     0.000000000000     0.00000000     0.00000000
 F      1   0   0     2.542600464773     0.00000000     0.00000000
 F      1   2   0     2.542620691982    99.00000001     0.00000000
 F      1   2   3     2.542620885315    99.00000001   100.68704029



           ************************************************************
           *        Program running with 18 parallel MPI-processes    *
           *              working on a common directory               *
           ************************************************************
------------------------------------------------------------------------------
                   ___                                                        
                  /   \      - P O W E R E D   B Y -                         
                 /     \                                                     
                 |  |  |   _    _      __       _____    __    __             
                 |  |  |  | |  | |    /  \     |  _  \  |  |  /  |          
                  \  \/   | |  | |   /    \    | | | |  |  | /  /          
                 / \  \   | |__| |  /  /\  \   | |_| |  |  |/  /          
                |  |  |   |  __  | /  /__\  \  |    /   |      \           
                |  |  |   | |  | | |   __   |  |    \   |  |\   \          
                \     /   | |  | | |  |  |  |  | |\  \  |  | \   \       
                 \___/    |_|  |_| |__|  |__|  |_| \__\ |__|  \__/        
                                                                              
                      - O R C A' S   B I G   F R I E N D -                    
                                      &                                       
                       - I N T E G R A L  F E E D E R -                       
                                                                              
 v1 FN, 2020, v2 2021                                                         
------------------------------------------------------------------------------


Reading SHARK input file /beegfs/scratch/ispackman/PFAS_EPR_calcs/benchmark/JChemEd_CF3_radical/CF3_radical_99.0_degrees_IN-PROGRESS/CF3_radical_99.0_degrees.SHARKINP.tmp ... ok
----------------------
SHARK INTEGRAL PACKAGE
----------------------

Number of atoms                             ...      4
Number of basis functions                   ...    157
Number of shells                            ...     55
Maximum angular momentum                    ...      3
Integral batch strategy                     ... SHARK/LIBINT Hybrid
RI-J (if used) integral strategy            ... SPLIT-RIJ (Revised 2003 algorithm where possible)
Printlevel                                  ...      1
Contraction scheme used                     ... SEGMENTED contraction
Coulomb Range Separation                    ... NOT USED
Exchange Range Separation                   ... Long Range
   Mu parameter                             ...  0.250000
   Scaling (regular/separated)              ...  0.195728  0.804272
Finite Nucleus Model                        ... NOT USED
Auxiliary Coulomb fitting basis             ... AVAILABLE
   # of basis functions in Aux-J            ...    196
   # of shells in Aux-J                     ...     60
   Maximum angular momentum in Aux-J        ...      4
Auxiliary J/K fitting basis                 ... NOT available
Auxiliary Correlation fitting basis         ... NOT available
Auxiliary 'external' fitting basis          ... NOT available
Integral threshold                          ...     2.500000e-11
Primitive cut-off                           ...     2.500000e-12
Primitive pair pre-selection threshold      ...     2.500000e-12

Calculating pre-screening integrals         ... done (  0.0 sec) Dimension = 55
Organizing shell pair data                  ... done (  0.0 sec)
Shell pair information
Total number of shell pairs                 ...      1540
Shell pairs after pre-screening             ...      1506
Total number of primitive shell pairs       ...      4274
Primitive shell pairs kept                  ...      3551
          la=0 lb=0:    282 shell pairs
          la=1 lb=0:    356 shell pairs
          la=1 lb=1:    120 shell pairs
          la=2 lb=0:    276 shell pairs
          la=2 lb=1:    180 shell pairs
          la=2 lb=2:     78 shell pairs
          la=3 lb=0:     96 shell pairs
          la=3 lb=1:     60 shell pairs
          la=3 lb=2:     48 shell pairs
          la=3 lb=3:     10 shell pairs

Calculating one electron integrals          ... done (  0.0 sec)
Calculating RI/J V-Matrix + Cholesky decomp.... done (  0.0 sec)
Calculating Nuclear repulsion               ... done (  0.0 sec) ENN=    126.556004449096 Eh

SHARK setup successfully completed in   0.3 seconds

Maximum memory used throughout the entire GTOINT-calculation: 15.2 MB


           ************************************************************
           *        Program running with 18 parallel MPI-processes    *
           *              working on a common directory               *
           ************************************************************

Diagonalization of the overlap matrix:
Smallest eigenvalue                        ... 4.069e-04
Time for diagonalization                   ...    0.008 sec
Threshold for overlap eigenvalues          ... 1.000e-08
Number of eigenvalues below threshold      ... 0
Time for construction of square roots      ...    0.018 sec
Total time needed                          ...    0.027 sec

-------------------
DFT GRID GENERATION
-------------------

General Integration Accuracy     IntAcc      ... 4.388
Radial Grid Type                 RadialGrid  ... OptM3 with GC (2021)
Angular Grid (max. ang.)         AngularGrid ... 4 (Lebedev-302)
Angular grid pruning method      GridPruning ... 4 (adaptive)
Weight generation scheme         WeightScheme... Becke
Basis function cutoff            BFCut       ... 1.0000e-11
Integration weight cutoff        WCut        ... 1.0000e-14
Angular grids for H and He will be reduced by one unit
Partially contracted basis set               ... off
Rotationally invariant grid construction     ... off

Total number of grid points                  ...    25781
Total number of batches                      ...      405
Average number of points per batch           ...       63
Average number of grid points per atom       ...     6445
Time for grid setup =    0.156 sec

--------------------
COSX GRID GENERATION
--------------------

GRIDX 1
-------
General Integration Accuracy     IntAcc      ... 3.816
Radial Grid Type                 RadialGrid  ... OptM3 with GC (2021)
Angular Grid (max. ang.)         AngularGrid ... 1 (Lebedev-50)
Angular grid pruning method      GridPruning ... 4 (adaptive)
Weight generation scheme         WeightScheme... Becke
Basis function cutoff            BFCut       ... 1.0000e-11
Integration weight cutoff        WCut        ... 1.0000e-14
Angular grids for H and He will be reduced by one unit
Partially contracted basis set               ... on
Rotationally invariant grid construction     ... off

Total number of grid points                  ...     3274
Total number of batches                      ...       53
Average number of points per batch           ...       61
Average number of grid points per atom       ...      818
UseSFitting                                  ... on

GRIDX 2
-------
General Integration Accuracy     IntAcc      ... 4.020
Radial Grid Type                 RadialGrid  ... OptM3 with GC (2021)
Angular Grid (max. ang.)         AngularGrid ... 2 (Lebedev-110)
Angular grid pruning method      GridPruning ... 4 (adaptive)
Weight generation scheme         WeightScheme... Becke
Basis function cutoff            BFCut       ... 1.0000e-11
Integration weight cutoff        WCut        ... 1.0000e-14
Angular grids for H and He will be reduced by one unit
Partially contracted basis set               ... on
Rotationally invariant grid construction     ... off

Total number of grid points                  ...     9126
Total number of batches                      ...      143
Average number of points per batch           ...       63
Average number of grid points per atom       ...     2282
UseSFitting                                  ... on

GRIDX 3
-------
General Integration Accuracy     IntAcc      ... 4.338
Radial Grid Type                 RadialGrid  ... OptM3 with GC (2021)
Angular Grid (max. ang.)         AngularGrid ... 3 (Lebedev-194)
Angular grid pruning method      GridPruning ... 4 (adaptive)
Weight generation scheme         WeightScheme... Becke
Basis function cutoff            BFCut       ... 1.0000e-11
Integration weight cutoff        WCut        ... 1.0000e-14
Angular grids for H and He will be reduced by one unit
Partially contracted basis set               ... on
Rotationally invariant grid construction     ... off

Total number of grid points                  ...    19687
Total number of batches                      ...      309
Average number of points per batch           ...       63
Average number of grid points per atom       ...     4922
UseSFitting                                  ... on

Time for X-Grid setup             =    0.341 sec

--------------
SCF ITERATIONS
[...]
  VA   - Mayer's total valence
  BVA  - Mayer's bonded valence
  FA   - Mayer's free valence

  ATOM       NA         ZA         QA         VA         BVA        FA
  0 C      5.4625     6.0000     0.5375     3.7817     3.1776     0.6040
  1 F      9.1791     9.0000    -0.1791     1.0350     1.0299     0.0052
  2 F      9.1792     9.0000    -0.1792     1.0347     1.0296     0.0051
  3 F      9.1792     9.0000    -0.1792     1.0347     1.0296     0.0051

  Mayer bond orders larger than 0.100000
B(  0-C ,  1-F ) :   1.0594 B(  0-C ,  2-F ) :   1.0591 B(  0-C ,  3-F ) :   1.0591 


-------
TIMINGS
-------

Total SCF time: 0 days 0 hours 0 min 4 sec 

Total time                  ....       4.835 sec
Sum of individual times     ....       4.182 sec  ( 86.5%)

Fock matrix formation       ....       3.297 sec  ( 68.2%)
  Split-RI-J                ....       0.476 sec  ( 14.4% of F)
  Chain of spheres X        ....       1.385 sec  ( 42.0% of F)
  XC integration            ....       0.669 sec  ( 20.3% of F)
    Basis function eval.    ....       0.040 sec  (  5.9% of XC)
    Density eval.           ....       0.049 sec  (  7.3% of XC)
    XC-Functional eval.     ....       0.022 sec  (  3.2% of XC)
    XC-Potential eval.      ....       0.060 sec  (  9.0% of XC)
Diagonalization             ....       0.114 sec  (  2.4%)
Density matrix formation    ....       0.007 sec  (  0.2%)
Population analysis         ....       0.155 sec  (  3.2%)
Initial guess               ....       0.020 sec  (  0.4%)
Orbital Transformation      ....       0.000 sec  (  0.0%)
Orbital Orthonormalization  ....       0.010 sec  (  0.2%)
DIIS solution               ....       0.042 sec  (  0.9%)
Grid generation             ....       0.546 sec  ( 11.3%)

Maximum memory used throughout the entire SCF-calculation: 63.2 MB


-------------------------------------------------------------------------------
                          DFT DISPERSION CORRECTION                            
                                                                               
                              DFTD3 V3.1  Rev 1                                
                              USING zero damping                               
-------------------------------------------------------------------------------
The omegaB97X-D3 functional is recognized. Fit by Chai et al.
Active option DFTDOPT                   ...         3   

molecular C6(AA) [au] = 165.618185 


            DFT-D V3
 parameters
 s6 scaling factor         :     1.0000 
 rs6 scaling factor        :     1.2810 
 s8 scaling factor         :     1.0000 
 rs8 scaling factor        :     1.0940 
 Damping factor alpha6     :    14.0000 
 Damping factor alpha8     :    16.0000 
 ad hoc parameters k1-k3   :    16.0000     1.3333    -4.0000 

 Edisp/kcal,au: -0.033871020912  -0.000053976902 
 E6   /kcal   :  -0.004299884 
 E8   /kcal   :  -0.029571137 
 % E8         :  87.305124537 

-------------------------   ----------------
Dispersion correction           -0.000053977
-------------------------   ----------------


-------------------------   --------------------
FINAL SINGLE POINT ENERGY      -337.593791832025
-------------------------   --------------------

                                *** OPTIMIZATION RUN DONE ***

                            ***************************************
                            *     ORCA property calculations      *
                            ***************************************

                                    ---------------------
                                    Active property flags
                                    ---------------------
   (+) Dipole Moment


------------------------------------------------------------------------------
                       ORCA ELECTRIC PROPERTIES CALCULATION
------------------------------------------------------------------------------

Dipole Moment Calculation                       ... on
Quadrupole Moment Calculation                   ... off
Polarizability Calculation                      ... off
GBWName                                         ... /beegfs/scratch/ispackman/PFAS_EPR_calcs/benchmark/JChemEd_CF3_radical/CF3_radical_99.0_degrees_IN-PROGRESS/CF3_radical_99.0_degrees.gbw
Electron density                                ... /beegfs/scratch/ispackman/PFAS_EPR_calcs/benchmark/JChemEd_CF3_radical/CF3_radical_99.0_degrees_IN-PROGRESS/CF3_radical_99.0_degrees.scfp
The origin for moment calculation is the CENTER OF MASS  = ( 0.000001,  0.000000 -0.984721)

-------------
DIPOLE MOMENT
-------------
                                X             Y             Z
Electronic contribution:     -0.00006      -0.00000       0.13156
Nuclear contribution   :     -0.00000      -0.00000       0.31274
                        -----------------------------------------
Total Dipole Moment    :     -0.00006      -0.00000       0.44430
                        -----------------------------------------
Magnitude (a.u.)       :      0.44430
Magnitude (Debye)      :      1.12931



--------------------
Rotational spectrum 
--------------------
 
Rotational constants in cm-1:     0.381201     0.381198     0.210312 
Rotational constants in MHz : 11428.113934 11428.013657  6304.994266 

 Dipole components along the rotational axes: 
x,y,z [a.u.] :    -0.000061     0.000001     0.444295 
x,y,z [Debye]:    -0.000156     0.000003     1.129308 

 


           ************************************************************
           *        Program running with 18 parallel MPI-processes    *
           *              working on a common directory               *
           ************************************************************

-------------------------------------------------------------------------------
                               ORCA SCF HESSIAN
-------------------------------------------------------------------------------

                   --------- SHARK INITIALIZATION DONE ---------

Hessian of the Kohn-Sham DFT energy:
Kohn-Sham wavefunction type                      ... UKS
Hartree-Fock exchange scaling                    ...    0.196
Number of operators                              ...    2
Number of atoms                                  ...    4
Basis set dimensions                             ...  157
Integral neglect threshold                       ... 2.5e-11
Integral primitive cutoff                        ... 2.5e-12

Setting up DFT Hessian calculations              ... 

HESS GRID
---------

General Integration Accuracy     IntAcc      ... 4.629
Radial Grid Type                 RadialGrid  ... OptM3 with GC (2021)
Angular Grid (max. ang.)         AngularGrid ... 5 (Lebedev-434)
Angular grid pruning method      GridPruning ... 4 (adaptive)
Weight generation scheme         WeightScheme... Becke
Basis function cutoff            BFCut       ... 1.0000e-11
Integration weight cutoff        WCut        ... 1.0000e-14
Angular grids for H and He will be reduced by one unit
Partially contracted basis set               ... off
Rotationally invariant grid construction     ... off

Total number of grid points                  ...    39977
Total number of batches                      ...      627
Average number of points per batch           ...       63
Average number of grid points per atom       ...     9994

Building densities                               ... done   (      0.0 sec)
Calculating rho(r) on the grid                   ... done   (      0.3 sec)
Building xc-kernel on the grid                   ... done   (      0.1 sec)
                                                     done   (      0.8 sec)

Nuclear repulsion Hessian  (SHARK)               ... done   (      0.0 sec)

----------------------------------------------
Forming right-hand sides of CP-SCF equations     ...
----------------------------------------------
One electron integral derivatives  (SHARK)       ... done   (      0.0 sec)
Transforming the overlap derivative matrices     ... done   (      0.0 sec)
Making the Q(x) pseudodensities                  ... done   (      0.0 sec)
Adding the E*S(x)*S(y) terms to the Hessian      ... done   (      0.0 sec)
Calculating energy weighted overlap derivatives  ... done   (      0.0 sec)
Two electron integral derivatives (SHARK-RI)     ... done   (      2.4 sec)
Exchange-correlation integral derivatives        ... done   (      2.4 sec)
tr(F(y)Q(x)) contribution to the Hessian         ... done   (      0.0 sec)
Response fock operator R(S(x)) (SHARK-RIJCOSX)   ... done   (      1.0 sec)
XC Response fock operator R(S(x))                ... done   (      0.5 sec)
tr(F(y)S(x)) contribution to the Hessian         ... done   (      0.0 sec)
Transforming and finalizing RHSs                 ... done   (      0.1 sec)

----------------------------------------------
Solving the CP-SCF equations (RIJCOSX)           ...
----------------------------------------------
     CP-SCF ITERATION   0:   1.6035e-01 (   0.5 sec   0/ 12 done)
     CP-SCF ITERATION   1:   5.4741e-02 (   0.5 sec   0/ 12 done)
     CP-SCF ITERATION   2:   2.0937e-02 (   0.5 sec   0/ 12 done)
     CP-SCF ITERATION   3:   6.1567e-03 (   0.4 sec   0/ 12 done)
     CP-SCF ITERATION   4:   2.2919e-03 (   0.5 sec   0/ 12 done)
     CP-SCF ITERATION   5:   9.6013e-04 (   0.4 sec   1/ 12 done)
     CP-SCF ITERATION   6:   2.9932e-04 (   0.4 sec   2/ 12 done)
     CP-SCF ITERATION   7:   7.3232e-05 (   0.4 sec  12/ 12 done)
                    *** THE CP-SCF HAS CONVERGED ***

                                                 ... done   (      4.0 sec)
Forming perturbed density Hessian contributions  ... done   (      0.0 sec)
2nd integral derivative contribs (SHARK-RI)      ... done   (      6.7 sec)
Exchange-correlation Hessian                     ... done   (      0.9 sec)
Dispersion correction in the Hessian             ... done   (      0.1 sec)
Dipole derivatives                               ... (center of mass:  0.000001,  0.000000 -0.984721)done   (      0.1 sec)

Total SCF Hessian time: 0 days 0 hours 0 min 19 sec 

Writing the Hessian file to the disk             ... done


Maximum memory used throughout the entire SCFHESS-calculation: 145.1 MB

-----------------------
VIBRATIONAL FREQUENCIES
-----------------------

Scaling factor for frequencies =  1.000000000  (already applied!)

   0:         0.00 cm**-1
   1:         0.00 cm**-1
   2:         0.00 cm**-1
   3:         0.00 cm**-1
   4:         0.00 cm**-1
   5:         0.00 cm**-1
   6:       585.66 cm**-1
   7:       586.71 cm**-1
   8:       785.64 cm**-1
   9:      1047.50 cm**-1
  10:      1047.50 cm**-1
  11:      1086.93 cm**-1


------------
NORMAL MODES
------------

These modes are the Cartesian displacements weighted by the diagonal matrix
M(i,i)=1/sqrt(m[i]) where m[i] is the mass of the displaced atom
Thus, these vectors are normalized but *not* orthogonal

                  0          1          2          3          4          5    
      0       0.000000   0.000000   0.000000   0.000000   0.000000   0.000000
      1       0.000000   0.000000   0.000000   0.000000   0.000000   0.000000
      2       0.000000   0.000000   0.000000   0.000000   0.000000   0.000000
      3       0.000000   0.000000   0.000000   0.000000   0.000000   0.000000
      4       0.000000   0.000000   0.000000   0.000000   0.000000   0.000000
      5       0.000000   0.000000   0.000000   0.000000   0.000000   0.000000
      6       0.000000   0.000000   0.000000   0.000000   0.000000   0.000000
      7       0.000000   0.000000   0.000000   0.000000   0.000000   0.000000
      8       0.000000   0.000000   0.000000   0.000000   0.000000   0.000000
      9       0.000000   0.000000   0.000000   0.000000   0.000000   0.000000
     10       0.000000   0.000000   0.000000   0.000000   0.000000   0.000000
     11       0.000000   0.000000   0.000000   0.000000   0.000000   0.000000
                  6          7          8          9         10         11    
      0       0.297931   0.000015  -0.000248  -0.867531   0.163017   0.003637
      1      -0.000016   0.297229   0.000000   0.163060   0.867668   0.000005
      2       0.001042  -0.000000  -0.575680   0.003609  -0.000682   0.832110
      3       0.481795   0.000025   0.457284   0.316982  -0.059565   0.266577
      4       0.000032  -0.608192   0.000000  -0.009352  -0.049762  -0.000000
      5       0.068224   0.000004   0.121261  -0.200061   0.037594  -0.174524
      6      -0.335053  -0.472483  -0.228563   0.137407   0.093512  -0.134437
      7      -0.473049   0.210114   0.394237  -0.161779  -0.227808   0.232501
      8      -0.034445   0.059134   0.121349   0.131331   0.154046  -0.175777
      9      -0.335102   0.472448  -0.228564   0.094085  -0.137010  -0.134439
     10       0.473027   0.210162  -0.394237   0.068040  -0.270991  -0.232503
     11      -0.034439  -0.059138   0.121349   0.066448  -0.191209  -0.175779


-----------
IR SPECTRUM
-----------

 Mode   freq       eps      Int      T**2         TX        TY        TZ
       cm**-1   L/(mol*cm) km/mol    a.u.
----------------------------------------------------------------------------
  6:    585.66   0.000297    1.50  0.000158  ( 0.012573 -0.000001  0.000074)
  7:    586.71   0.000291    1.47  0.000155  ( 0.000001  0.012443  0.000000)
  8:    785.64   0.002732   13.81  0.001085  (-0.000098  0.000000 -0.032942)
  9:   1047.50   0.059603  301.21  0.017757  (-0.130962  0.024603  0.000221)
 10:   1047.50   0.059568  301.03  0.017746  ( 0.024610  0.130921 -0.000042)
 11:   1086.93   0.009126   46.12  0.002620  ( 0.000503  0.000001  0.051185)

* The epsilon (eps) is given for a Dirac delta lineshape.
** The dipole moment derivative (T) already includes vibrational overlap.

The first frequency considered to be a vibration is 6
The total number of vibrations considered is 6


--------------------------
THERMOCHEMISTRY AT 298.15K
--------------------------

Temperature         ... 298.15 K
Pressure            ... 1.00 atm
Total Mass          ... 69.00 AMU

Throughout the following assumptions are being made:
  (1) The electronic state is orbitally nondegenerate
      but the spin degeneracy is treated
  (2) There are no thermally accessible electronically excited states
  (3) Hindered rotations indicated by low frequency modes are not
      treated as such but are treated as vibrations and this may
      cause some error
  (4) All equations used are the standard statistical mechanics
      equations for an ideal gas
  (5) All vibrations are strictly harmonic

freq.     585.66  E(vib)   ...       0.11 
freq.     586.71  E(vib)   ...       0.11 
freq.     785.64  E(vib)   ...       0.05 
freq.    1047.50  E(vib)   ...       0.02 
freq.    1047.50  E(vib)   ...       0.02 
freq.    1086.93  E(vib)   ...       0.02 

------------
INNER ENERGY
------------

The inner energy is: U= E(el) + E(ZPE) + E(vib) + E(rot) + E(trans)
    E(el)   - is the total energy from the electronic structure calculation
              = E(kin-el) + E(nuc-el) + E(el-el) + E(nuc-nuc)
    E(ZPE)  - the the zero temperature vibrational energy from the frequency calculation
    E(vib)  - the the finite temperature correction to E(ZPE) due to population
              of excited vibrational states
    E(rot)  - is the rotational thermal energy
    E(trans)- is the translational thermal energy

Summary of contributions to the inner energy U:
Electronic energy                ...   -337.59379183 Eh
Zero point energy                ...      0.01170966 Eh       7.35 kcal/mol
Thermal vibrational correction   ...      0.00050566 Eh       0.32 kcal/mol
Thermal rotational correction    ...      0.00141627 Eh       0.89 kcal/mol
Thermal translational correction ...      0.00141627 Eh       0.89 kcal/mol
-----------------------------------------------------------------------
Total thermal energy                   -337.57874396 Eh


Summary of corrections to the electronic energy:
(perhaps to be used in another calculation)
Total thermal correction                  0.00333821 Eh       2.09 kcal/mol
Non-thermal (ZPE) correction              0.01170966 Eh       7.35 kcal/mol
-----------------------------------------------------------------------
Total correction                          0.01504787 Eh       9.44 kcal/mol


--------
ENTHALPY
--------

The enthalpy is H = U + kB*T
                kB is Boltzmann's constant
Total free energy                 ...   -337.57874396 Eh 
Thermal Enthalpy correction       ...      0.00094421 Eh       0.59 kcal/mol
-----------------------------------------------------------------------
Total Enthalpy                    ...   -337.57779976 Eh


Note: Rotational entropy computed according to Herzberg 
Infrared and Raman Spectra, Chapter V,1, Van Nostrand Reinhold, 1945 
Point Group:  C3v, Symmetry Number:   3  
Rotational constants in cm-1:     0.381201     0.381198     0.210312 

Vibrational entropy computed according to the QRRHO of S. Grimme
Chem.Eur.J. 2012 18 9955


-------
ENTROPY
-------

The entropy contributions are T*S = T*(S(el)+S(vib)+S(rot)+S(trans))
     S(el)   - electronic entropy
     S(vib)  - vibrational entropy
     S(rot)  - rotational entropy
     S(trans)- translational entropy
The entropies will be listed as multiplied by the temperature to get
units of energy

Electronic entropy                ...      0.00065446 Eh      0.41 kcal/mol
Vibrational entropy               ...      0.00065992 Eh      0.41 kcal/mol
Rotational entropy                ...      0.01012019 Eh      6.35 kcal/mol
Translational entropy             ...      0.01834582 Eh     11.51 kcal/mol
-----------------------------------------------------------------------
Final entropy term                ...      0.02978038 Eh     18.69 kcal/mol

In case the symmetry of your molecule has not been determined correctly
or in case you have a reason to use a different symmetry number we print 
out the resulting rotational entropy values for sn=1,12 :
 --------------------------------------------------------
|  sn= 1 | S(rot)=       0.01115748 Eh      7.00 kcal/mol|
|  sn= 2 | S(rot)=       0.01050302 Eh      6.59 kcal/mol|
|  sn= 3 | S(rot)=       0.01012019 Eh      6.35 kcal/mol|
|  sn= 4 | S(rot)=       0.00984856 Eh      6.18 kcal/mol|
|  sn= 5 | S(rot)=       0.00963788 Eh      6.05 kcal/mol|
|  sn= 6 | S(rot)=       0.00946573 Eh      5.94 kcal/mol|
|  sn= 7 | S(rot)=       0.00932018 Eh      5.85 kcal/mol|
|  sn= 8 | S(rot)=       0.00919411 Eh      5.77 kcal/mol|
|  sn= 9 | S(rot)=       0.00908290 Eh      5.70 kcal/mol|
|  sn=10 | S(rot)=       0.00898342 Eh      5.64 kcal/mol|
|  sn=11 | S(rot)=       0.00889343 Eh      5.58 kcal/mol|
|  sn=12 | S(rot)=       0.00881127 Eh      5.53 kcal/mol|
 --------------------------------------------------------


-------------------
GIBBS FREE ENERGY
-------------------

The Gibbs free energy is G = H - T*S

Total enthalpy                    ...   -337.57779976 Eh 
Total entropy correction          ...     -0.02978038 Eh    -18.69 kcal/mol
-----------------------------------------------------------------------
Final Gibbs free energy         ...   -337.60758014 Eh

For completeness - the Gibbs free energy minus the electronic energy
G-E(el)                           ...     -0.01378831 Eh     -8.65 kcal/mol


Timings for individual modules:

Sum of individual times         ...      108.016 sec (=   1.800 min)
GTO integral calculation        ...       16.647 sec (=   0.277 min)  15.4 %
SCF iterations                  ...       53.504 sec (=   0.892 min)  49.5 %
SCF Gradient evaluation         ...       15.414 sec (=   0.257 min)  14.3 %
Geometry relaxation             ...        0.216 sec (=   0.004 min)   0.2 %
Analytical frequency calculation...       22.236 sec (=   0.371 min)  20.6 %
                             ****ORCA TERMINATED NORMALLY****
TOTAL RUN TIME: 0 days 0 hours 2 minutes 3 seconds 36 msec

slurmID:    32260089
totalRuntime[s]:    123.073108617
