
                                 *****************
                                 * O   R   C   A *
                                 *****************

                                            #,                                       
                                            ###                                      
                                            ####                                     
                                            #####                                    
                                            ######                                   
                                           ########,                                 
                                     ,,################,,,,,                         
                               ,,#################################,,                 
                          ,,##########################################,,             
                       ,#########################################, ''#####,          
                    ,#############################################,,   '####,        
                  ,##################################################,,,,####,       
                ,###########''''           ''''###############################       
              ,#####''   ,,,,##########,,,,          '''####'''          '####       
            ,##' ,,,,###########################,,,                        '##       
           ' ,,###''''                  '''############,,,                           
         ,,##''                                '''############,,,,        ,,,,,,###''
      ,#''                                            '''#######################'''  
     '                                                          ''''####''''         
             ,#######,   #######,   ,#######,      ##                                
            ,#'     '#,  ##    ##  ,#'     '#,    #''#        ######   ,####,        
            ##       ##  ##   ,#'  ##            #'  '#       #        #'  '#        
            ##       ##  #######   ##           ,######,      #####,   #    #        
            '#,     ,#'  ##    ##  '#,     ,#' ,#      #,         ##   #,  ,#        
             '#######'   ##     ##  '#######'  #'      '#     #####' # '####'        



                  #######################################################
                  #                        -***-                        #
                  #          Department of theory and spectroscopy      #
                  #    Directorship and core code : Frank Neese         #
                  #        Max Planck Institute fuer Kohlenforschung    #
                  #                Kaiser Wilhelm Platz 1               #
                  #                 D-45470 Muelheim/Ruhr               #
                  #                      Germany                        #
                  #                                                     #
                  #                  All rights reserved                #
                  #                        -***-                        #
                  #######################################################


                         Program Version 5.0.4 -  RELEASE  -


 With contributions from (in alphabetic order):
   Daniel Aravena         : Magnetic Suceptibility
   Michael Atanasov       : Ab Initio Ligand Field Theory (pilot matlab implementation)
   Alexander A. Auer      : GIAO ZORA, VPT2 properties, NMR spectrum
   Ute Becker             : Parallelization
   Giovanni Bistoni       : ED, misc. LED, open-shell LED, HFLD
   Martin Brehm           : Molecular dynamics
   Dmytro Bykov           : SCF Hessian
   Vijay G. Chilkuri      : MRCI spin determinant printing, contributions to CSF-ICE
   Dipayan Datta          : RHF DLPNO-CCSD density
   Achintya Kumar Dutta   : EOM-CC, STEOM-CC
   Dmitry Ganyushin       : Spin-Orbit,Spin-Spin,Magnetic field MRCI
   Miquel Garcia          : C-PCM and meta-GGA Hessian, CC/C-PCM, Gaussian charge scheme
   Yang Guo               : DLPNO-NEVPT2, F12-NEVPT2, CIM, IAO-localization
   Andreas Hansen         : Spin unrestricted coupled pair/coupled cluster methods
   Benjamin Helmich-Paris : MC-RPA, TRAH-SCF, COSX integrals
   Lee Huntington         : MR-EOM, pCC
   Robert Izsak           : Overlap fitted RIJCOSX, COSX-SCS-MP3, EOM
   Marcus Kettner         : VPT2
   Christian Kollmar      : KDIIS, OOCD, Brueckner-CCSD(T), CCSD density, CASPT2, CASPT2-K
   Simone Kossmann        : Meta GGA functionals, TD-DFT gradient, OOMP2, MP2 Hessian
   Martin Krupicka        : Initial AUTO-CI
   Lucas Lang             : DCDCAS
   Marvin Lechner         : AUTO-CI (C++ implementation), FIC-MRCC
   Dagmar Lenk            : GEPOL surface, SMD
   Dimitrios Liakos       : Extrapolation schemes; Compound Job, initial MDCI parallelization
   Dimitrios Manganas     : Further ROCIS development; embedding schemes
   Dimitrios Pantazis     : SARC Basis sets
   Anastasios Papadopoulos: AUTO-CI, single reference methods and gradients
   Taras Petrenko         : DFT Hessian,TD-DFT gradient, ASA, ECA, R-Raman, ABS, FL, XAS/XES, NRVS
   Peter Pinski           : DLPNO-MP2, DLPNO-MP2 Gradient
   Christoph Reimann      : Effective Core Potentials
   Marius Retegan         : Local ZFS, SOC
   Christoph Riplinger    : Optimizer, TS searches, QM/MM, DLPNO-CCSD(T), (RO)-DLPNO pert. Triples
   Tobias Risthaus        : Range-separated hybrids, TD-DFT gradient, RPA, STAB
   Michael Roemelt        : Original ROCIS implementation
   Masaaki Saitow         : Open-shell DLPNO-CCSD energy and density
   Barbara Sandhoefer     : DKH picture change effects
   Avijit Sen             : IP-ROCIS
   Kantharuban Sivalingam : CASSCF convergence, NEVPT2, FIC-MRCI
   Bernardo de Souza      : ESD, SOC TD-DFT
   Georgi Stoychev        : AutoAux, RI-MP2 NMR, DLPNO-MP2 response
   Willem Van den Heuvel  : Paramagnetic NMR
   Boris Wezisla          : Elementary symmetry handling
   Frank Wennmohs         : Technical directorship


 We gratefully acknowledge several colleagues who have allowed us to
 interface, adapt or use parts of their codes:
   Stefan Grimme, W. Hujo, H. Kruse, P. Pracht,  : VdW corrections, initial TS optimization,
                  C. Bannwarth, S. Ehlert          DFT functionals, gCP, sTDA/sTD-DF
   Ed Valeev, F. Pavosevic, A. Kumar             : LibInt (2-el integral package), F12 methods
   Garnet Chan, S. Sharma, J. Yang, R. Olivares  : DMRG
   Ulf Ekstrom                                   : XCFun DFT Library
   Mihaly Kallay                                 : mrcc  (arbitrary order and MRCC methods)
   Jiri Pittner, Ondrej Demel                    : Mk-CCSD
   Frank Weinhold                                : gennbo (NPA and NBO analysis)
   Christopher J. Cramer and Donald G. Truhlar   : smd solvation model
   Lars Goerigk                                  : TD-DFT with DH, B97 family of functionals
   V. Asgeirsson, H. Jonsson                     : NEB implementation
   FAccTs GmbH                                   : IRC, NEB, NEB-TS, DLPNO-Multilevel, CI-OPT
                                                   MM, QMMM, 2- and 3-layer-ONIOM, Crystal-QMMM,
                                                   LR-CPCM, SF, NACMEs, symmetry and pop. for TD-DFT,
                                                   nearIR, NL-DFT gradient (VV10), updates on ESD,
                                                   ML-optimized integration grids
   S Lehtola, MJT Oliveira, MAL Marques          : LibXC Library
   Liviu Ungur et al                             : ANISO software


 Your calculation uses the libint2 library for the computation of 2-el integrals
 For citations please refer to: http://libint.valeyev.net

 Your ORCA version has been built with support for libXC version: 5.1.0
 For citations please refer to: https://tddft.org/programs/libxc/

 This ORCA versions uses:
   CBLAS   interface :  Fast vector & matrix operations
   LAPACKE interface :  Fast linear algebra routines
   SCALAPACK package :  Parallel linear algebra routines
   Shared memory     :  Shared parallel matrices
   BLAS/LAPACK       :  OpenBLAS 0.3.15  USE64BITINT DYNAMIC_ARCH NO_AFFINITY SkylakeX SINGLE_THREADED
        Core in use  :  SkylakeX
   Copyright (c) 2011-2014, The OpenBLAS Project


Your calculation utilizes the atom-pairwise dispersion correction
with the zero-damping scheme (D30)
Cite in your paper:
S.Grimme, J.Antony, S.Ehrlich and H.Krieg, J.Chem.Phys., 132, (2010), 154104 
   

XCFun DFT library Copyright 2009-2010 Ulf Ekstrom and contributors.
See http://admol.org/xcfun for more information.
This is free software; see the source code for copying conditions.
There is ABSOLUTELY NO WARRANTY; not even for MERCHANTABILITY or FITNESS FOR A PARTICULAR PURPOSE.
For details see the documentation.
Scientific users of this library should cite U. Ekstrom, L. Visscher, R. Bast, A. J. Thorvaldsen and K. Ruud;
J.Chem.Theor.Comp. 2010, DOI: 10.1021/ct100117s
XCFun Version 0.99 

================================================================================

----- Orbital basis set information -----
Your calculation utilizes the basis: def2-TZVPD
   F. Weigend and R. Ahlrichs, Phys. Chem. Chem. Phys. 7, 3297 (2005).
   D. Rappoport and F. Furche, J. Chem. Phys. 133 134105 (2010).

----- AuxJ basis set information -----
Your calculation utilizes the auxiliary basis: def2/J
   F. Weigend, Phys. Chem. Chem. Phys. 8, 1057 (2006).

================================================================================
                                        WARNINGS
                       Please study these warnings very carefully!
================================================================================


WARNING: Geometry Optimization
  ===> : Switching off AutoStart
         For restart on a previous wavefunction, please use MOREAD

INFO   : the flag for use of the SHARK integral package has been found!

================================================================================
                                       INPUT FILE
================================================================================
NAME = /beegfs/scratch/ispackman/PFAS_EPR_calcs/benchmark/JChemEd_CF3_radical/CF3_radical_109.5_degrees_IN-PROGRESS/CF3_radical_109.5_degrees.inp
|  1> ! UKS TightSCF wB97x-D3 def2-TZVPD xyzfile opt freq
|  2> 
|  3> # CF3 radical 109.5 degrees fixed
|  4> 
|  5> %maxcore 1000
|  6> %pal
|  7> nprocs 18
|  8> end
|  9> 
| 10> %geom Constraints
| 11>         { A * 0 * C }
| 12>     end
| 13> end
| 14> * xyz 0 2
| 15> C 0.00 0.00 0.00
| 16> F 1.2400140231 0.0000000000 -0.4377102039
| 17> F -0.6200070115 1.0738836450 -0.4377102039
| 18> F -0.6200070115 -1.0738836450 -0.4377102039
| 19> **                         ****END OF INPUT****
================================================================================

                       *****************************
                       * Geometry Optimization Run *
                       *****************************

Geometry optimization settings:
Update method            Update   .... BFGS
Choice of coordinates    CoordSys .... Z-matrix Internals
Initial Hessian          InHess   .... Almoef's Model

Convergence Tolerances:
Energy Change            TolE     ....  5.0000e-06 Eh
Max. Gradient            TolMAXG  ....  3.0000e-04 Eh/bohr
RMS Gradient             TolRMSG  ....  1.0000e-04 Eh/bohr
Max. Displacement        TolMAXD  ....  4.0000e-03 bohr
RMS Displacement         TolRMSD  ....  2.0000e-03 bohr
Strict Convergence                ....  False
------------------------------------------------------------------------------
                        ORCA OPTIMIZATION COORDINATE SETUP
------------------------------------------------------------------------------

The optimization will be done in new redundant internal coordinates
Making redundant internal coordinates   ...  (new redundants) done
Evaluating the initial hessian          ...  (Almloef) done
Evaluating the coordinates              ...  done
Calculating the B-matrix                .... done
Calculating the G-matrix                .... done
Diagonalizing the G-matrix              .... done
Imposing constraints:
 Iter   0:  RMS(Cart)=    0.0000000000 RMS(Int)=    0.0000000000
CONVERGED
Will constrain atom 0 coordinate 1 
Will constrain atom 0 coordinate 2 
Will constrain atom 1 coordinate 2 
The first mode is                       ....    1
The number of degrees of freedom        ....    6
Storing new coordinates                 .... done

    -----------------------------------------------------------------
                    Redundant Internal Coordinates


    -----------------------------------------------------------------
         Definition                    Initial Value    Approx d2E/dq
    -----------------------------------------------------------------
      1. B(F   1,C   0)                  1.3150         0.684896   
      2. B(F   2,C   0)                  1.3150         0.684896   
      3. B(F   3,C   0)                  1.3150         0.684896   
      4. A(F   2,C   0,F   3)          109.5000         0.440101 C 
      5. A(F   1,C   0,F   2)          109.5000         0.440101 C 
      6. A(F   1,C   0,F   3)          109.5000         0.440101 C 
      7. I(F   1,F   3,F   2,C   0)     54.6636         0.012147   
    -----------------------------------------------------------------

Number of atoms                         .... 4
Number of degrees of freedom            .... 7

         *************************************************************
         *                GEOMETRY OPTIMIZATION CYCLE   1            *
         *************************************************************
---------------------------------
CARTESIAN COORDINATES (ANGSTROEM)
---------------------------------
  C      0.000000    0.000000    0.000000
  F      1.240014    0.000000   -0.437710
  F     -0.620007    1.073884   -0.437710
  F     -0.620007   -1.073884   -0.437710

----------------------------
CARTESIAN COORDINATES (A.U.)
----------------------------
  NO LB      ZA    FRAG     MASS         X           Y           Z
   0 C     6.0000    0    12.011    0.000000    0.000000    0.000000
   1 F     9.0000    0    18.998    2.343287    0.000000   -0.827152
   2 F     9.0000    0    18.998   -1.171643    2.029346   -0.827152
   3 F     9.0000    0    18.998   -1.171643   -2.029346   -0.827152

--------------------------------
INTERNAL COORDINATES (ANGSTROEM)
--------------------------------
 C      0   0   0     0.000000000000     0.00000000     0.00000000
 F      1   0   0     1.315000000031     0.00000000     0.00000000
 F      1   2   0     1.314999999964   109.50000000     0.00000000
 F      1   2   3     1.314999999964   109.50000000   120.07056370

---------------------------
INTERNAL COORDINATES (A.U.)
---------------------------
 C      0   0   0     0.000000000000     0.00000000     0.00000000
 F      1   0   0     2.484989866166     0.00000000     0.00000000
 F      1   2   0     2.484989866039   109.50000000     0.00000000
 F      1   2   3     2.484989866039   109.50000000   120.07056370

---------------------
BASIS SET INFORMATION
---------------------
There are 2 groups of distinct atoms

 Group   1 Type C   : 12s6p3d1f contracted to 6s3p3d1f pattern {621111/411/111/1}
 Group   2 Type F   : 12s7p3d1f contracted to 6s4p3d1f pattern {621111/4111/111/1}

Atom   0C    basis set group =>   1
Atom   1F    basis set group =>   2
Atom   2F    basis set group =>   2
Atom   3F    basis set group =>   2
---------------------------------
AUXILIARY/J BASIS SET INFORMATION
---------------------------------
There are 2 groups of distinct atoms

 Group   1 Type C   : 12s5p4d2f1g contracted to 6s4p3d1f1g pattern {711111/2111/211/2/1}
 Group   2 Type F   : 12s5p4d2f1g contracted to 6s4p3d1f1g pattern {711111/2111/211/2/1}

Atom   0C    basis set group =>   1
Atom   1F    basis set group =>   2
Atom   2F    basis set group =>   2
Atom   3F    basis set group =>   2


           ************************************************************
           *        Program running with 18 parallel MPI-processes    *
           *              working on a common directory               *
           ************************************************************
------------------------------------------------------------------------------
                           ORCA GTO INTEGRAL CALCULATION
                           -- RI-GTO INTEGRALS CHOSEN --
------------------------------------------------------------------------------
------------------------------------------------------------------------------
                   ___                                                        
                  /   \      - P O W E R E D   B Y -                         
                 /     \                                                     
                 |  |  |   _    _      __       _____    __    __             
                 |  |  |  | |  | |    /  \     |  _  \  |  |  /  |          
                  \  \/   | |  | |   /    \    | | | |  |  | /  /          
                 / \  \   | |__| |  /  /\  \   | |_| |  |  |/  /          
                |  |  |   |  __  | /  /__\  \  |    /   |      \           
                |  |  |   | |  | | |   __   |  |    \   |  |\   \          
                \     /   | |  | | |  |  |  |  | |\  \  |  | \   \       
                 \___/    |_|  |_| |__|  |__|  |_| \__\ |__|  \__/        
                                                                              
                      - O R C A' S   B I G   F R I E N D -                    
                                      &                                       
                       - I N T E G R A L  F E E D E R -                       
                                                                              
 v1 FN, 2020, v2 2021                                                         
------------------------------------------------------------------------------


Reading SHARK input file /beegfs/scratch/ispackman/PFAS_EPR_calcs/benchmark/JChemEd_CF3_radical/CF3_radical_109.5_degrees_IN-PROGRESS/CF3_radical_109.5_degrees.SHARKINP.tmp ... ok
----------------------
SHARK INTEGRAL PACKAGE
----------------------

Number of atoms                             ...      4
Number of basis functions                   ...    157
Number of shells                            ...     55
Maximum angular momentum                    ...      3
Integral batch strategy                     ... SHARK/LIBINT Hybrid
RI-J (if used) integral strategy            ... SPLIT-RIJ (Revised 2003 algorithm where possible)
Printlevel                                  ...      1
Contraction scheme used                     ... SEGMENTED contraction
Coulomb Range Separation                    ... NOT USED
Exchange Range Separation                   ... Long Range
   Mu parameter                             ...  0.250000
   Scaling (regular/separated)              ...  0.195728  0.804272
Finite Nucleus Model                        ... NOT USED
Auxiliary Coulomb fitting basis             ... AVAILABLE
   # of basis functions in Aux-J            ...    196
   # of shells in Aux-J                     ...     60
   Maximum angular momentum in Aux-J        ...      4
Auxiliary J/K fitting basis                 ... NOT available
Auxiliary Correlation fitting basis         ... NOT available
Auxiliary 'external' fitting basis          ... NOT available
Integral threshold                          ...     2.500000e-11
Primitive cut-off                           ...     2.500000e-12
Primitive pair pre-selection threshold      ...     2.500000e-12

Calculating pre-screening integrals         ... done (  0.0 sec) Dimension = 55
Organizing shell pair data                  ... done (  0.0 sec)
Shell pair information
Total number of shell pairs                 ...      1540
Shell pairs after pre-screening             ...      1504
Total number of primitive shell pairs       ...      4274
Primitive shell pairs kept                  ...      3545
          la=0 lb=0:    282 shell pairs
          la=1 lb=0:    354 shell pairs
          la=1 lb=1:    120 shell pairs
          la=2 lb=0:    276 shell pairs
          la=2 lb=1:    180 shell pairs
          la=2 lb=2:     78 shell pairs
          la=3 lb=0:     96 shell pairs
          la=3 lb=1:     60 shell pairs
          la=3 lb=2:     48 shell pairs
          la=3 lb=3:     10 shell pairs

Calculating one electron integrals          ... done (  0.0 sec)
Calculating RI/J V-Matrix + Cholesky decomp.... done (  1.3 sec)
Calculating Nuclear repulsion               ... done (  0.0 sec) ENN=    125.062918466751 Eh

SHARK setup successfully completed in   6.2 seconds

Maximum memory used throughout the entire GTOINT-calculation: 15.2 MB


           ************************************************************
           *        Program running with 18 parallel MPI-processes    *
           *              working on a common directory               *
           ************************************************************
-------------------------------------------------------------------------------
                                 ORCA SCF
-------------------------------------------------------------------------------

------------
SCF SETTINGS
------------
Hamiltonian:
 Density Functional     Method          .... DFT(GTOs)
 Exchange Functional    Exchange        .... WB97X-D3
 Correlation Functional Correlation     .... WB97X-D3
 Gradients option       PostSCFGGA      .... off
 Hybrid DFT is turned on
   Fraction HF Exchange ScalHFX         ....  0.195728
   Scaling of DF-GGA-X  ScalDFX         ....  0.000000
   Scaling of DF-GGA-C  ScalDFC         ....  1.000000
   Scaling of DF-LDA-C  ScalLDAC        ....  1.000000
   Perturbative correction              ....  0.000000
   Density functional embedding theory  .... OFF
 Long-range corrected/Screened/Range-Separated Hybrid DFT is turned on
   Amount of maximum screened exact exchange              ....  0.804272
   Range separation parameter mu (erf(mu*r12)/r12)        ....  0.250000
 RI-approximation to the Coulomb term is turned on
   Number of AuxJ basis functions       .... 196
   RIJ-COSX (HFX calculated with COS-X)).... on


General Settings:
 Integral files         IntName         .... /beegfs/scratch/ispackman/PFAS_EPR_calcs/benchmark/JChemEd_CF3_radical/CF3_radical_109.5_degrees_IN-PROGRESS/CF3_radical_109.5_degrees
 Hartree-Fock type      HFTyp           .... UHF
 Total Charge           Charge          ....    0
 Multiplicity           Mult            ....    2
 Number of Electrons    NEL             ....   33
 Basis Dimension        Dim             ....  157
 Nuclear Repulsion      ENuc            ....    125.0629184668 Eh

Convergence Acceleration:
 DIIS                   CNVDIIS         .... on
   Start iteration      DIISMaxIt       ....    12
   Startup error        DIISStart       ....  0.200000
   # of expansion vecs  DIISMaxEq       ....     5
   Bias factor          DIISBfac        ....   1.050
   Max. coefficient     DIISMaxC        ....  10.000
 Trust-Rad. Augm. Hess. CNVTRAH         .... auto
   Auto Start mean grad. ratio tolernc. ....  1.125000
   Auto Start start iteration           ....    20
   Auto Start num. interpolation iter.  ....    10
   Max. Number of Micro iterations      ....    16
   Max. Number of Macro iterations      .... Maxiter - #DIIS iter
   Number of Davidson start vectors     ....     2
   Converg. threshold I  (grad. norm)   ....   1.000e-05
   Converg. threshold II (energy diff.) ....   1.000e-08
   Grad. Scal. Fac. for Micro threshold ....   0.100
   Minimum threshold for Micro iter.    ....   0.010
   NR start threshold (gradient norm)   ....   0.001
   Initial trust radius                 ....   0.400
   Minimum AH scaling param. (alpha)    ....   1.000
   Maximum AH scaling param. (alpha)    .... 1000.000
   Orbital update algorithm             .... Taylor
   White noise on init. David. guess    .... on
   Maximum white noise                  ....   0.010
   Quad. conv. algorithm                .... NR
 SOSCF                  CNVSOSCF        .... off
 Level Shifting         CNVShift        .... on
   Level shift para.    LevelShift      ....    0.2500
   Turn off err/grad.   ShiftErr        ....    0.0010
 Zerner damping         CNVZerner       .... off
 Static damping         CNVDamp         .... on
   Fraction old density DampFac         ....    0.7000
   Max. Damping (<1)    DampMax         ....    0.9800
   Min. Damping (>=0)   DampMin         ....    0.0000
   Turn off err/grad.   DampErr         ....    0.1000
 Fernandez-Rico         CNVRico         .... off

SCF Procedure:
 Maximum # iterations   MaxIter         ....   125
 SCF integral mode      SCFMode         .... Direct
   Integral package                     .... SHARK and LIBINT hybrid scheme
 Reset frequency        DirectResetFreq ....    20
 Integral Threshold     Thresh          ....  2.500e-11 Eh
 Primitive CutOff       TCut            ....  2.500e-12 Eh

Convergence Tolerance:
 Convergence Check Mode ConvCheckMode   .... Total+1el-Energy
 Convergence forced     ConvForced      .... 0
 Energy Change          TolE            ....  1.000e-08 Eh
 1-El. energy change                    ....  1.000e-05 Eh
 DIIS Error             TolErr          ....  5.000e-07


Diagonalization of the overlap matrix:
Smallest eigenvalue                        ... 3.182e-04
Time for diagonalization                   ...    0.007 sec
Threshold for overlap eigenvalues          ... 1.000e-08
Number of eigenvalues below threshold      ... 0
Time for construction of square roots      ...    0.015 sec
Total time needed                          ...    0.024 sec

Time for model grid setup =    0.067 sec

------------------------------
INITIAL GUESS: MODEL POTENTIAL
------------------------------
Loading Hartree-Fock densities                     ... done
Calculating cut-offs                               ... done
Initializing the effective Hamiltonian             ... done
Setting up the integral package (SHARK)            ... done
Starting the Coulomb interaction                   ... done (   0.5 sec)
Reading the grid                                   ... done
Mapping shells                                     ... done
Starting the XC term evaluation                    ... done (   0.1 sec)
  promolecular density results
     # of electrons  =     32.999893594
     EX              =    -35.097039193
     EC              =     -1.145277158
     EX+EC           =    -36.242316350
Transforming the Hamiltonian                       ... done (   0.0 sec)
Diagonalizing the Hamiltonian                      ... done (   0.0 sec)
Back transforming the eigenvectors                 ... done (   0.0 sec)
Now organizing SCF variables                       ... done
                      ------------------
                      INITIAL GUESS DONE (   0.7 sec)
                      ------------------
-------------------
DFT GRID GENERATION
-------------------

General Integration Accuracy     IntAcc      ... 4.388
Radial Grid Type                 RadialGrid  ... OptM3 with GC (2021)
Angular Grid (max. ang.)         AngularGrid ... 4 (Lebedev-302)
Angular grid pruning method      GridPruning ... 4 (adaptive)
Weight generation scheme         WeightScheme... Becke
Basis function cutoff            BFCut       ... 1.0000e-11
Integration weight cutoff        WCut        ... 1.0000e-14
Angular grids for H and He will be reduced by one unit
Partially contracted basis set               ... off
Rotationally invariant grid construction     ... off

Total number of grid points                  ...    25774
Total number of batches                      ...      405
Average number of points per batch           ...       63
Average number of grid points per atom       ...     6444
Time for grid setup =    0.153 sec

--------------------
COSX GRID GENERATION
--------------------

GRIDX 1
-------
General Integration Accuracy     IntAcc      ... 3.816
Radial Grid Type                 RadialGrid  ... OptM3 with GC (2021)
Angular Grid (max. ang.)         AngularGrid ... 1 (Lebedev-50)
Angular grid pruning method      GridPruning ... 4 (adaptive)
Weight generation scheme         WeightScheme... Becke
Basis function cutoff            BFCut       ... 1.0000e-11
Integration weight cutoff        WCut        ... 1.0000e-14
Angular grids for H and He will be reduced by one unit
Partially contracted basis set               ... on
Rotationally invariant grid construction     ... off

Total number of grid points                  ...     3269
Total number of batches                      ...       53
Average number of points per batch           ...       61
Average number of grid points per atom       ...      817
UseSFitting                                  ... on

GRIDX 2
-------
General Integration Accuracy     IntAcc      ... 4.020
Radial Grid Type                 RadialGrid  ... OptM3 with GC (2021)
Angular Grid (max. ang.)         AngularGrid ... 2 (Lebedev-110)
Angular grid pruning method      GridPruning ... 4 (adaptive)
Weight generation scheme         WeightScheme... Becke
Basis function cutoff            BFCut       ... 1.0000e-11
Integration weight cutoff        WCut        ... 1.0000e-14
Angular grids for H and He will be reduced by one unit
Partially contracted basis set               ... on
Rotationally invariant grid construction     ... off

Total number of grid points                  ...     9132
Total number of batches                      ...      146
Average number of points per batch           ...       62
Average number of grid points per atom       ...     2283
UseSFitting                                  ... on

GRIDX 3
-------
General Integration Accuracy     IntAcc      ... 4.338
Radial Grid Type                 RadialGrid  ... OptM3 with GC (2021)
Angular Grid (max. ang.)         AngularGrid ... 3 (Lebedev-194)
Angular grid pruning method      GridPruning ... 4 (adaptive)
Weight generation scheme         WeightScheme... Becke
Basis function cutoff            BFCut       ... 1.0000e-11
Integration weight cutoff        WCut        ... 1.0000e-14
Angular grids for H and He will be reduced by one unit
Partially contracted basis set               ... on
Rotationally invariant grid construction     ... off

Total number of grid points                  ...    19680
Total number of batches                      ...      309
Average number of points per batch           ...       63
Average number of grid points per atom       ...     4920
UseSFitting                                  ... on

Time for X-Grid setup             =    0.355 sec

--------------
SCF ITERATIONS
--------------
ITER       Energy         Delta-E        Max-DP      RMS-DP      [F,P]     Damp
               ***  Starting incremental Fock matrix formation  ***
  0   -337.5786115233   0.000000000000 0.01515803  0.00036530  0.0630171 0.7000
  1   -337.6011512451  -0.022539721808 0.00910982  0.00024717  0.0305483 0.7000
                               ***Turning on DIIS***
  2   -337.6108164244  -0.009665179348 0.01831392  0.00048389  0.0159450 0.0000
  3   -337.6285099700  -0.017693545587 0.00621429  0.00014160  0.0145141 0.0000
  4   -337.6311788063  -0.002668836248 0.00483757  0.00009422  0.0038971 0.0000
  5   -337.6314363251  -0.000257518838 0.00357469  0.00006051  0.0024273 0.0000
  6   -337.6315187697  -0.000082444577 0.00249917  0.00003962  0.0010828 0.0000
  7   -337.6315413773  -0.000022607613 0.00240127  0.00003273  0.0004641 0.0000
               *** Restarting incremental Fock matrix formation ***
                                   *** Resetting DIIS ***
  8   -337.6315523775  -0.000011000219 0.00073059  0.00000893  0.0000420 0.0000
  9   -337.6315524646  -0.000000087042 0.00010298  0.00000137  0.0000252 0.0000
 10   -337.6315524797  -0.000000015186 0.00003174  0.00000053  0.0000167 0.0000
 11   -337.6315524856  -0.000000005904 0.00001350  0.00000023  0.0000068 0.0000
 12   -337.6315524841   0.000000001522 0.00001313  0.00000015  0.0000017 0.0000
                 **** Energy Check signals convergence ****

               *****************************************************
               *                     SUCCESS                       *
               *           SCF CONVERGED AFTER  13 CYCLES          *
               *****************************************************

Old exchange energy                            =    -10.538175211 Eh
New exchange energy                            =    -10.538165413 Eh
Exchange energy change after final integration =      0.000009798 Eh
Total energy after final integration           =   -337.631542685 Eh
Final COS-X integration done in                =     0.383 sec

----------------
TOTAL SCF ENERGY
----------------

Total Energy       :         -337.63154268 Eh           -9187.42136 eV

Components:
Nuclear Repulsion  :          125.06291847 Eh            3403.13502 eV
Electronic Energy  :         -462.69446115 Eh          -12590.55638 eV
One Electron Energy:         -716.93159228 Eh          -19508.70043 eV
Two Electron Energy:          254.23713113 Eh            6918.14405 eV
Max COSX asymmetry :            0.00000070 Eh               0.00002 eV

Virial components:
Potential Energy   :         -674.25823151 Eh          -18347.49925 eV
Kinetic Energy     :          336.62668882 Eh            9160.07789 eV
Virial Ratio       :            2.00298507


DFT components:
N(Alpha)           :       16.999870605059 electrons
N(Beta)            :       15.999904028258 electrons
N(Total)           :       32.999774633317 electrons
E(XC)              :      -26.196315018658 Eh       
DFET-embed. en.    :        0.000000000000 Eh       

---------------
SCF CONVERGENCE
---------------

  Last Energy change         ...    1.6160e-09  Tolerance :   1.0000e-08
  Last MAX-Density change    ...    0.0000e+00  Tolerance :   1.0000e-07
  Last RMS-Density change    ...    0.0000e+00  Tolerance :   5.0000e-09
  Last DIIS Error            ...    5.6091e-07  Tolerance :   5.0000e-07

             **** THE GBW FILE WAS UPDATED (/beegfs/scratch/ispackman/PFAS_EPR_calcs/benchmark/JChemEd_CF3_radical/CF3_radical_109.5_degrees_IN-PROGRESS/CF3_radical_109.5_degrees.gbw) ****
             **** DENSITY /beegfs/scratch/ispackman/PFAS_EPR_calcs/benchmark/JChemEd_CF3_radical/CF3_radical_109.5_degrees_IN-PROGRESS/CF3_radical_109.5_degrees.scfp WAS UPDATED ****
             **** ENERGY FILE WAS UPDATED (/beegfs/scratch/ispackman/PFAS_EPR_calcs/benchmark/JChemEd_CF3_radical/CF3_radical_109.5_degrees_IN-PROGRESS/CF3_radical_109.5_degrees.en.tmp) ****
----------------------
UHF SPIN CONTAMINATION
----------------------

Warning: in a DFT calculation there is little theoretical justification to 
         calculate <S**2> as in Hartree-Fock theory. We will do it anyways
         but you should keep in mind that the values have only limited relevance

Expectation value of <S**2>     :     0.751984
Ideal value S*(S+1) for S=0.5   :     0.750000
Deviation                       :     0.001984

             **** THE GBW FILE WAS UPDATED (/beegfs/scratch/ispackman/PFAS_EPR_calcs/benchmark/JChemEd_CF3_radical/CF3_radical_109.5_degrees_IN-PROGRESS/CF3_radical_109.5_degrees.gbw) ****
             **** DENSITY /beegfs/scratch/ispackman/PFAS_EPR_calcs/benchmark/JChemEd_CF3_radical/CF3_radical_109.5_degrees_IN-PROGRESS/CF3_radical_109.5_degrees.scfp WAS UPDATED ****
----------------
ORBITAL ENERGIES
----------------
                 SPIN UP ORBITALS
  NO   OCC          E(Eh)            E(eV) 
   0   1.0000     -24.851341      -676.2394 
   1   1.0000     -24.851341      -676.2394 
   2   1.0000     -24.851333      -676.2391 
   3   1.0000     -10.542652      -286.8802 
   4   1.0000      -1.473081       -40.0846 
   5   1.0000      -1.381222       -37.5850 
   6   1.0000      -1.381219       -37.5849 
   7   1.0000      -0.839075       -22.8324 
   8   1.0000      -0.732667       -19.9369 
   9   1.0000      -0.732662       -19.9368 
  10   1.0000      -0.702393       -19.1131 
  11   1.0000      -0.607433       -16.5291 
  12   1.0000      -0.607432       -16.5291 
  13   1.0000      -0.569329       -15.4922 
  14   1.0000      -0.569320       -15.4920 
  15   1.0000      -0.544352       -14.8126 
  16   1.0000      -0.385491       -10.4897 
  17   0.0000       0.070877         1.9287 
  18   0.0000       0.104482         2.8431 
  19   0.0000       0.104482         2.8431 
  20   0.0000       0.113771         3.0959 
  21   0.0000       0.159224         4.3327 
  22   0.0000       0.159224         4.3327 
  23   0.0000       0.173260         4.7146 
  24   0.0000       0.173260         4.7147 
  25   0.0000       0.182200         4.9579 
  26   0.0000       0.238849         6.4994 
  27   0.0000       0.239999         6.5307 
  28   0.0000       0.240003         6.5308 
  29   0.0000       0.271602         7.3907 
  30   0.0000       0.323940         8.8149 
  31   0.0000       0.360728         9.8159 
  32   0.0000       0.360735         9.8161 
  33   0.0000       0.372752        10.1431 
  34   0.0000       0.387724        10.5505 
  35   0.0000       0.387727        10.5506 
  36   0.0000       0.406845        11.0708 
  37   0.0000       0.417251        11.3540 
  38   0.0000       0.417251        11.3540 
  39   0.0000       0.487795        13.2736 
  40   0.0000       0.487798        13.2737 
  41   0.0000       0.490506        13.3474 
  42   0.0000       0.580336        15.7918 
  43   0.0000       0.646073        17.5805 
  44   0.0000       0.646073        17.5806 
  45   0.0000       0.679038        18.4776 
  46   0.0000       0.679041        18.4776 
  47   0.0000       0.701129        19.0787 
  48   0.0000       0.701132        19.0788 
  49   0.0000       0.713694        19.4206 
  50   0.0000       0.737584        20.0707 
  51   0.0000       0.751242        20.4423 
  52   0.0000       0.787451        21.4276 
  53   0.0000       0.787457        21.4278 
  54   0.0000       0.871509        23.7150 
  55   0.0000       0.881804        23.9951 
  56   0.0000       0.881806        23.9952 
  57   0.0000       0.947913        25.7940 
  58   0.0000       0.977556        26.6006 
  59   0.0000       0.977558        26.6007 
  60   0.0000       1.065422        28.9916 
  61   0.0000       1.065424        28.9917 
  62   0.0000       1.089102        29.6360 
  63   0.0000       1.159590        31.5541 
  64   0.0000       1.165334        31.7103 
  65   0.0000       1.165337        31.7104 
  66   0.0000       1.234635        33.5961 
  67   0.0000       1.252835        34.0914 
  68   0.0000       1.252849        34.0918 
  69   0.0000       1.301174        35.4068 
  70   0.0000       1.330266        36.1984 
  71   0.0000       1.330275        36.1986 
  72   0.0000       1.452673        39.5292 
  73   0.0000       1.452686        39.5296 
  74   0.0000       1.692958        46.0677 
  75   0.0000       2.121172        57.7200 
  76   0.0000       2.136138        58.1273 
  77   0.0000       2.136146        58.1275 
  78   0.0000       2.187641        59.5287 
  79   0.0000       2.216083        60.3027 
  80   0.0000       2.216087        60.3028 
  81   0.0000       2.258999        61.4705 
  82   0.0000       2.317872        63.0725 
  83   0.0000       2.338014        63.6206 
  84   0.0000       2.338020        63.6208 
  85   0.0000       2.503918        68.1351 
  86   0.0000       2.503940        68.1357 
  87   0.0000       2.637736        71.7764 
  88   0.0000       2.637746        71.7767 
  89   0.0000       2.660100        72.3850 
  90   0.0000       2.821751        76.7838 
  91   0.0000       2.961213        80.5787 
  92   0.0000       2.961216        80.5788 
  93   0.0000       3.152291        85.7782 
  94   0.0000       3.207996        87.2940 
  95   0.0000       3.208057        87.2957 
  96   0.0000       3.211786        87.3971 
  97   0.0000       3.316635        90.2502 
  98   0.0000       3.316637        90.2503 
  99   0.0000       3.360384        91.4407 
 100   0.0000       3.360386        91.4408 
 101   0.0000       3.410693        92.8097 
 102   0.0000       3.583041        97.4995 
 103   0.0000       3.583053        97.4998 
 104   0.0000       3.741227       101.8040 
 105   0.0000       3.881698       105.6264 
 106   0.0000       3.914121       106.5086 
 107   0.0000       3.914198       106.5108 
 108   0.0000       4.017007       109.3083 
 109   0.0000       4.058609       110.4404 
 110   0.0000       4.058629       110.4409 
 111   0.0000       4.146929       112.8437 
 112   0.0000       4.146967       112.8447 
 113   0.0000       4.201994       114.3421 
 114   0.0000       5.254342       142.9779 
 115   0.0000       5.394174       146.7829 
 116   0.0000       5.394219       146.7842 
 117   0.0000       6.902710       187.8323 
 118   0.0000       6.909218       188.0094 
 119   0.0000       6.909257       188.0104 
 120   0.0000       6.912574       188.1007 
 121   0.0000       6.912657       188.1030 
 122   0.0000       6.918388       188.2589 
 123   0.0000       6.922436       188.3691 
 124   0.0000       6.923345       188.3938 
 125   0.0000       6.923401       188.3953 
 126   0.0000       7.077259       192.5820 
 127   0.0000       7.077285       192.5827 
 128   0.0000       7.089378       192.9118 
 129   0.0000       7.217970       196.4109 
 130   0.0000       7.218010       196.4120 
 131   0.0000       7.242296       197.0729 
 132   0.0000       7.445435       202.6006 
 133   0.0000       7.445517       202.6028 
 134   0.0000       7.525656       204.7835 
 135   0.0000       7.717873       210.0140 
 136   0.0000       7.717916       210.0152 
 137   0.0000       7.724173       210.1854 
 138   0.0000       8.501879       231.3479 
 139   0.0000       8.501937       231.3495 
 140   0.0000       8.511857       231.6194 
 141   0.0000       8.574516       233.3245 
 142   0.0000       8.574529       233.3248 
 143   0.0000       8.611285       234.3250 
 144   0.0000       8.830608       240.2930 
 145   0.0000       8.830628       240.2936 
 146   0.0000       8.843912       240.6551 
 147   0.0000       8.893436       242.0027 
 148   0.0000       9.087570       247.2853 
 149   0.0000       9.087620       247.2867 
 150   0.0000       9.222987       250.9702 
 151   0.0000       9.393142       255.6004 
 152   0.0000       9.393162       255.6009 
 153   0.0000      22.819629       620.9537 
 154   0.0000      57.220669      1557.0536 
 155   0.0000      57.273632      1558.4948 
 156   0.0000      57.273639      1558.4950 

                 SPIN DOWN ORBITALS
  NO   OCC          E(Eh)            E(eV) 
   0   1.0000     -24.848356      -676.1581 
   1   1.0000     -24.848356      -676.1581 
   2   1.0000     -24.848340      -676.1577 
   3   1.0000     -10.529821      -286.5310 
   4   1.0000      -1.463309       -39.8187 
   5   1.0000      -1.372608       -37.3506 
   6   1.0000      -1.372606       -37.3505 
   7   1.0000      -0.820972       -22.3398 
   8   1.0000      -0.722282       -19.6543 
   9   1.0000      -0.722273       -19.6541 
  10   1.0000      -0.663827       -18.0636 
  11   1.0000      -0.596327       -16.2269 
  12   1.0000      -0.596325       -16.2268 
  13   1.0000      -0.560399       -15.2492 
  14   1.0000      -0.560390       -15.2490 
  15   1.0000      -0.541070       -14.7233 
  16   0.0000      -0.033144        -0.9019 
  17   0.0000       0.082230         2.2376 
  18   0.0000       0.107624         2.9286 
  19   0.0000       0.107624         2.9286 
  20   0.0000       0.130043         3.5386 
  21   0.0000       0.162243         4.4149 
  22   0.0000       0.162243         4.4149 
  23   0.0000       0.180287         4.9058 
  24   0.0000       0.180287         4.9058 
  25   0.0000       0.195136         5.3099 
  26   0.0000       0.240612         6.5474 
  27   0.0000       0.259531         7.0622 
  28   0.0000       0.259539         7.0624 
  29   0.0000       0.278889         7.5890 
  30   0.0000       0.333611         9.0780 
  31   0.0000       0.381315        10.3761 
  32   0.0000       0.381332        10.3766 
  33   0.0000       0.383998        10.4491 
  34   0.0000       0.390887        10.6366 
  35   0.0000       0.390892        10.6367 
  36   0.0000       0.418182        11.3793 
  37   0.0000       0.419793        11.4232 
  38   0.0000       0.419794        11.4232 
  39   0.0000       0.488040        13.2803 
  40   0.0000       0.488042        13.2803 
  41   0.0000       0.495776        13.4907 
  42   0.0000       0.585897        15.9431 
  43   0.0000       0.648702        17.6521 
  44   0.0000       0.648703        17.6521 
  45   0.0000       0.680920        18.5288 
  46   0.0000       0.680925        18.5289 
  47   0.0000       0.705080        19.1862 
  48   0.0000       0.705084        19.1863 
  49   0.0000       0.714205        19.4345 
  50   0.0000       0.749200        20.3868 
  51   0.0000       0.750504        20.4222 
  52   0.0000       0.789149        21.4738 
  53   0.0000       0.789152        21.4739 
  54   0.0000       0.873144        23.7594 
  55   0.0000       0.885111        24.0851 
  56   0.0000       0.885116        24.0852 
  57   0.0000       0.961362        26.1600 
  58   0.0000       0.986138        26.8342 
  59   0.0000       0.986142        26.8343 
  60   0.0000       1.068672        29.0801 
  61   0.0000       1.068677        29.0802 
  62   0.0000       1.091962        29.7138 
  63   0.0000       1.166706        31.7477 
  64   0.0000       1.166712        31.7479 
  65   0.0000       1.169834        31.8328 
  66   0.0000       1.242701        33.8156 
  67   0.0000       1.263810        34.3900 
  68   0.0000       1.263817        34.3902 
  69   0.0000       1.301416        35.4133 
  70   0.0000       1.336328        36.3633 
  71   0.0000       1.336330        36.3634 
  72   0.0000       1.458682        39.6927 
  73   0.0000       1.458701        39.6933 
  74   0.0000       1.746879        47.5350 
  75   0.0000       2.129219        57.9390 
  76   0.0000       2.143282        58.3217 
  77   0.0000       2.143323        58.3228 
  78   0.0000       2.190238        59.5994 
  79   0.0000       2.224185        60.5232 
  80   0.0000       2.224193        60.5234 
  81   0.0000       2.276121        61.9364 
  82   0.0000       2.319434        63.1150 
  83   0.0000       2.344554        63.7985 
  84   0.0000       2.344560        63.7987 
  85   0.0000       2.515098        68.4393 
  86   0.0000       2.515122        68.4399 
  87   0.0000       2.654619        72.2359 
  88   0.0000       2.654635        72.2363 
  89   0.0000       2.665297        72.5264 
  90   0.0000       2.833159        77.0942 
  91   0.0000       2.965403        80.6927 
  92   0.0000       2.965422        80.6932 
  93   0.0000       3.200898        87.1009 
  94   0.0000       3.223854        87.7255 
  95   0.0000       3.223905        87.7269 
  96   0.0000       3.230069        87.8946 
  97   0.0000       3.340327        90.8949 
  98   0.0000       3.340362        90.8959 
  99   0.0000       3.396882        92.4339 
 100   0.0000       3.396905        92.4345 
 101   0.0000       3.416011        92.9544 
 102   0.0000       3.615424        98.3807 
 103   0.0000       3.615458        98.3816 
 104   0.0000       3.771717       102.6336 
 105   0.0000       3.890677       105.8707 
 106   0.0000       3.927448       106.8713 
 107   0.0000       3.927537       106.8737 
 108   0.0000       4.028349       109.6169 
 109   0.0000       4.074980       110.8859 
 110   0.0000       4.074981       110.8859 
 111   0.0000       4.152498       112.9952 
 112   0.0000       4.152528       112.9960 
 113   0.0000       4.213127       114.6450 
 114   0.0000       5.267424       143.3339 
 115   0.0000       5.405523       147.0918 
 116   0.0000       5.405587       147.0935 
 117   0.0000       6.905122       187.8979 
 118   0.0000       6.913164       188.1168 
 119   0.0000       6.913208       188.1180 
 120   0.0000       6.918647       188.2659 
 121   0.0000       6.918727       188.2681 
 122   0.0000       6.923752       188.4049 
 123   0.0000       6.927165       188.4977 
 124   0.0000       6.927221       188.4993 
 125   0.0000       6.927914       188.5181 
 126   0.0000       7.083558       192.7534 
 127   0.0000       7.083582       192.7541 
 128   0.0000       7.092133       192.9868 
 129   0.0000       7.222760       196.5413 
 130   0.0000       7.222808       196.5426 
 131   0.0000       7.250274       197.2900 
 132   0.0000       7.454182       202.8386 
 133   0.0000       7.454257       202.8406 
 134   0.0000       7.535465       205.0504 
 135   0.0000       7.724440       210.1927 
 136   0.0000       7.724528       210.1951 
 137   0.0000       7.732724       210.4181 
 138   0.0000       8.510499       231.5825 
 139   0.0000       8.510556       231.5840 
 140   0.0000       8.517754       231.7799 
 141   0.0000       8.584438       233.5944 
 142   0.0000       8.584450       233.5948 
 143   0.0000       8.619048       234.5362 
 144   0.0000       8.839364       240.5313 
 145   0.0000       8.839381       240.5318 
 146   0.0000       8.851165       240.8524 
 147   0.0000       8.904369       242.3002 
 148   0.0000       9.092388       247.4165 
 149   0.0000       9.092431       247.4176 
 150   0.0000       9.229719       251.1534 
 151   0.0000       9.399664       255.7779 
 152   0.0000       9.399688       255.7785 
 153   0.0000      22.842425       621.5740 
 154   0.0000      57.223649      1557.1347 
 155   0.0000      57.276586      1558.5752 
 156   0.0000      57.276593      1558.5753 

                    ********************************
                    * MULLIKEN POPULATION ANALYSIS *
                    ********************************

--------------------------------------------
MULLIKEN ATOMIC CHARGES AND SPIN POPULATIONS
--------------------------------------------
   0 C :    0.539790    0.806882
   1 F :   -0.179878    0.064375
   2 F :   -0.179957    0.064372
   3 F :   -0.179955    0.064371
Sum of atomic charges         :    0.0000000
Sum of atomic spin populations:    1.0000000

-----------------------------------------------------
MULLIKEN REDUCED ORBITAL CHARGES AND SPIN POPULATIONS
-----------------------------------------------------
CHARGE
  0 C s       :     3.185012  s :     3.185012
      pz      :     0.887926  p :     1.928433
      px      :     0.520272
      py      :     0.520234
      dz2     :     0.050732  d :     0.306258
      dxz     :     0.050358
      dyz     :     0.050361
      dx2y2   :     0.077409
      dxy     :     0.077398
      f0      :     0.002129  f :     0.040508
      f+1     :     0.005068
      f-1     :     0.005069
      f+2     :     0.005846
      f-2     :     0.005846
      f+3     :     0.004955
      f-3     :     0.011594
  1 F s       :     3.954510  s :     3.954510
      pz      :     1.814065  p :     5.213840
      px      :     1.480212
      py      :     1.919563
      dz2     :     0.000603  d :     0.010724
      dxz     :     0.006325
      dyz     :     0.000504
      dx2y2   :     0.005214
      dxy     :    -0.001921
      f0      :     0.000080  f :     0.000804
      f+1     :     0.000158
      f-1     :     0.000005
      f+2     :     0.000179
      f-2     :     0.000038
      f+3     :     0.000206
      f-3     :     0.000137
  2 F s       :     3.954562  s :     3.954562
      pz      :     1.814080  p :     5.213870
      px      :     1.809718
      py      :     1.590072
      dz2     :     0.000600  d :     0.010721
      dxz     :     0.001960
      dyz     :     0.004872
      dx2y2   :    -0.000138
      dxy     :     0.003428
      f0      :     0.000080  f :     0.000804
      f+1     :     0.000043
      f-1     :     0.000120
      f+2     :     0.000073
      f-2     :     0.000144
      f+3     :     0.000206
      f-3     :     0.000138
  3 F s       :     3.954561  s :     3.954561
      pz      :     1.814080  p :     5.213869
      px      :     1.809717
      py      :     1.590072
      dz2     :     0.000600  d :     0.010721
      dxz     :     0.001960
      dyz     :     0.004872
      dx2y2   :    -0.000138
      dxy     :     0.003428
      f0      :     0.000080  f :     0.000804
      f+1     :     0.000043
      f-1     :     0.000120
      f+2     :     0.000073
      f-2     :     0.000144
      f+3     :     0.000206
      f-3     :     0.000138

SPIN
  0 C s       :     0.257504  s :     0.257504
      pz      :     0.515461  p :     0.536930
      px      :     0.010718
      py      :     0.010750
      dz2     :     0.017809  d :     0.013216
      dxz     :    -0.001567
      dyz     :    -0.001564
      dx2y2   :    -0.000733
      dxy     :    -0.000729
      f0      :    -0.000239  f :    -0.000767
      f+1     :    -0.000460
      f-1     :    -0.000460
      f+2     :    -0.000127
      f-2     :    -0.000125
      f+3     :     0.000585
      f-3     :     0.000060
  1 F s       :     0.003330  s :     0.003330
      pz      :     0.062518  p :     0.059293
      px      :    -0.002120
      py      :    -0.001105
      dz2     :     0.000207  d :     0.001713
      dxz     :     0.000771
      dyz     :    -0.000003
      dx2y2   :     0.000768
      dxy     :    -0.000029
      f0      :    -0.000003  f :     0.000038
      f+1     :     0.000027
      f-1     :    -0.000000
      f+2     :     0.000003
      f-2     :     0.000002
      f+3     :     0.000008
      f-3     :     0.000001
  2 F s       :     0.003335  s :     0.003335
      pz      :     0.062536  p :     0.059287
      px      :    -0.001370
      py      :    -0.001879
      dz2     :     0.000206  d :     0.001712
      dxz     :     0.000190
      dyz     :     0.000577
      dx2y2   :     0.000171
      dxy     :     0.000568
      f0      :    -0.000003  f :     0.000038
      f+1     :     0.000006
      f-1     :     0.000020
      f+2     :     0.000002
      f-2     :     0.000003
      f+3     :     0.000008
      f-3     :     0.000001
  3 F s       :     0.003334  s :     0.003334
      pz      :     0.062536  p :     0.059287
      px      :    -0.001370
      py      :    -0.001879
      dz2     :     0.000206  d :     0.001712
      dxz     :     0.000190
      dyz     :     0.000577
      dx2y2   :     0.000171
      dxy     :     0.000568
      f0      :    -0.000003  f :     0.000038
      f+1     :     0.000006
      f-1     :     0.000020
      f+2     :     0.000002
      f-2     :     0.000003
      f+3     :     0.000008
      f-3     :     0.000001


                     *******************************
                     * LOEWDIN POPULATION ANALYSIS *
                     *******************************

-------------------------------------------
LOEWDIN ATOMIC CHARGES AND SPIN POPULATIONS
-------------------------------------------
   0 C :   -0.401054    0.616099
   1 F :    0.133691    0.127979
   2 F :    0.133681    0.127961
   3 F :    0.133681    0.127961

----------------------------------------------------
LOEWDIN REDUCED ORBITAL CHARGES AND SPIN POPULATIONS
----------------------------------------------------
CHARGE
  0 C s       :     2.685485  s :     2.685485
      pz      :     0.811872  p :     2.201240
      px      :     0.694687
      py      :     0.694682
      dz2     :     0.174425  d :     1.251049
      dxz     :     0.197553
      dyz     :     0.197554
      dx2y2   :     0.340758
      dxy     :     0.340760
      f0      :     0.015239  f :     0.263280
      f+1     :     0.025498
      f-1     :     0.025499
      f+2     :     0.042845
      f-2     :     0.042844
      f+3     :     0.046714
      f-3     :     0.064641
  1 F s       :     3.562583  s :     3.562583
      pz      :     1.731911  p :     5.097179
      px      :     1.580635
      py      :     1.784633
      dz2     :     0.030711  d :     0.204621
      dxz     :     0.062990
      dyz     :     0.005712
      dx2y2   :     0.044238
      dxy     :     0.060970
      f0      :     0.000183  f :     0.001925
      f+1     :     0.000416
      f-1     :     0.000014
      f+2     :     0.000459
      f-2     :     0.000078
      f+3     :     0.000410
      f-3     :     0.000364
  2 F s       :     3.562583  s :     3.562583
      pz      :     1.731904  p :     5.097192
      px      :     1.733633
      py      :     1.631654
      dz2     :     0.030710  d :     0.204619
      dxz     :     0.020031
      dyz     :     0.048671
      dx2y2   :     0.056786
      dxy     :     0.048421
      f0      :     0.000183  f :     0.001925
      f+1     :     0.000115
      f-1     :     0.000316
      f+2     :     0.000173
      f-2     :     0.000364
      f+3     :     0.000410
      f-3     :     0.000364
  3 F s       :     3.562583  s :     3.562583
      pz      :     1.731904  p :     5.097192
      px      :     1.733633
      py      :     1.631654
      dz2     :     0.030710  d :     0.204619
      dxz     :     0.020031
      dyz     :     0.048671
      dx2y2   :     0.056786
      dxy     :     0.048421
      f0      :     0.000183  f :     0.001925
      f+1     :     0.000115
      f-1     :     0.000316
      f+2     :     0.000173
      f-2     :     0.000364
      f+3     :     0.000410
      f-3     :     0.000364

SPIN
  0 C s       :     0.134227  s :     0.134227
      pz      :     0.413991  p :     0.425074
      px      :     0.005527
      py      :     0.005556
      dz2     :     0.057601  d :     0.048808
      dxz     :    -0.003776
      dyz     :    -0.003776
      dx2y2   :    -0.000619
      dxy     :    -0.000621
      f0      :    -0.000250  f :     0.007989
      f+1     :    -0.000239
      f-1     :    -0.000239
      f+2     :    -0.000204
      f-2     :    -0.000203
      f+3     :     0.009122
      f-3     :     0.000003
  1 F s       :     0.015248  s :     0.015248
      pz      :     0.072128  p :     0.077713
      px      :     0.006279
      py      :    -0.000694
      dz2     :     0.006127  d :     0.034624
      dxz     :     0.027229
      dyz     :    -0.000118
      dx2y2   :     0.001361
      dxy     :     0.000024
      f0      :     0.000022  f :     0.000394
      f+1     :     0.000220
      f-1     :     0.000000
      f+2     :     0.000131
      f-2     :     0.000001
      f+3     :     0.000015
      f-3     :     0.000004
  2 F s       :     0.015247  s :     0.015247
      pz      :     0.072138  p :     0.077697
      px      :     0.001041
      py      :     0.004519
      dz2     :     0.006127  d :     0.034622
      dxz     :     0.006719
      dyz     :     0.020392
      dx2y2   :     0.000358
      dxy     :     0.001027
      f0      :     0.000022  f :     0.000394
      f+1     :     0.000055
      f-1     :     0.000165
      f+2     :     0.000034
      f-2     :     0.000099
      f+3     :     0.000015
      f-3     :     0.000004
  3 F s       :     0.015247  s :     0.015247
      pz      :     0.072138  p :     0.077697
      px      :     0.001041
      py      :     0.004519
      dz2     :     0.006127  d :     0.034622
      dxz     :     0.006719
      dyz     :     0.020392
      dx2y2   :     0.000358
      dxy     :     0.001027
      f0      :     0.000022  f :     0.000394
      f+1     :     0.000055
      f-1     :     0.000165
      f+2     :     0.000034
      f-2     :     0.000099
      f+3     :     0.000015
      f-3     :     0.000004


                      *****************************
                      * MAYER POPULATION ANALYSIS *
                      *****************************

  NA   - Mulliken gross atomic population
  ZA   - Total nuclear charge
  QA   - Mulliken gross atomic charge
  VA   - Mayer's total valence
  BVA  - Mayer's bonded valence
  FA   - Mayer's free valence

  ATOM       NA         ZA         QA         VA         BVA        FA
  0 C      5.4602     6.0000     0.5398     3.8074     3.1560     0.6514
  1 F      9.1799     9.0000    -0.1799     1.0726     1.0689     0.0037
  2 F      9.1800     9.0000    -0.1800     1.0725     1.0688     0.0037
  3 F      9.1800     9.0000    -0.1800     1.0725     1.0688     0.0037

  Mayer bond orders larger than 0.100000
B(  0-C ,  1-F ) :   1.0521 B(  0-C ,  2-F ) :   1.0520 B(  0-C ,  3-F ) :   1.0520 


-------
TIMINGS
-------

Total SCF time: 0 days 0 hours 0 min 13 sec 

Total time                  ....      13.341 sec
Sum of individual times     ....      12.290 sec  ( 92.1%)

Fock matrix formation       ....      10.097 sec  ( 75.7%)
  Split-RI-J                ....       2.098 sec  ( 20.8% of F)
  Chain of spheres X        ....       2.981 sec  ( 29.5% of F)
  XC integration            ....       1.999 sec  ( 19.8% of F)
    Basis function eval.    ....       0.117 sec  (  5.9% of XC)
    Density eval.           ....       0.151 sec  (  7.5% of XC)
    XC-Functional eval.     ....       0.065 sec  (  3.2% of XC)
    XC-Potential eval.      ....       0.292 sec  ( 14.6% of XC)
Diagonalization             ....       0.356 sec  (  2.7%)
Density matrix formation    ....       0.015 sec  (  0.1%)
Population analysis         ....       0.118 sec  (  0.9%)
Initial guess               ....       0.669 sec  (  5.0%)
Orbital Transformation      ....       0.000 sec  (  0.0%)
Orbital Orthonormalization  ....       0.000 sec  (  0.0%)
DIIS solution               ....       0.460 sec  (  3.5%)
Grid generation             ....       0.575 sec  (  4.3%)

Maximum memory used throughout the entire SCF-calculation: 63.2 MB


-------------------------------------------------------------------------------
                          DFT DISPERSION CORRECTION                            
                                                                               
                              DFTD3 V3.1  Rev 1                                
                              USING zero damping                               
-------------------------------------------------------------------------------
The omegaB97X-D3 functional is recognized. Fit by Chai et al.
Active option DFTDOPT                   ...         3   

molecular C6(AA) [au] = 165.729981 


            DFT-D V3
 parameters
 s6 scaling factor         :     1.0000 
 rs6 scaling factor        :     1.2810 
 s8 scaling factor         :     1.0000 
 rs8 scaling factor        :     1.0940 
 Damping factor alpha6     :    14.0000 
 Damping factor alpha8     :    16.0000 
 ad hoc parameters k1-k3   :    16.0000     1.3333    -4.0000 

 Edisp/kcal,au: -0.047672203079  -0.000075970483 
 E6   /kcal   :  -0.006088239 
 E8   /kcal   :  -0.041583964 
 % E8         :  87.228953954 

-------------------------   ----------------
Dispersion correction           -0.000075970
-------------------------   ----------------


-------------------------   --------------------
FINAL SINGLE POINT ENERGY      -337.631618655465
-------------------------   --------------------



           ************************************************************
           *        Program running with 18 parallel MPI-processes    *
           *              working on a common directory               *
           ************************************************************
------------------------------------------------------------------------------
                         ORCA SCF GRADIENT CALCULATION
------------------------------------------------------------------------------

 ... reading COSX grid (gridx3)
Gradient of the Kohn-Sham DFT energy:
Kohn-Sham wavefunction type      ... UKS
Hartree-Fock exchange scaling    ...    0.196
Number of operators              ...    2
Number of atoms                  ...    4
Basis set dimensions             ...  157
Integral neglect threshold       ... 2.5e-11
Integral primitive cutoff        ... 2.5e-12
SHARK Integral package           ... ON

Nuc. rep. gradient       (SHARK) ... done (  0.0 sec)
HCore & Overlap gradient (SHARK) ... done (  0.0 sec)
RI-J gradient            (SHARK) ... done (  0.5 sec)
COSX-gradient                    ... done (  0.4 sec)
Exchange-correlation gradient    ... done
Dispersion correction            ... done

------------------
CARTESIAN GRADIENT
------------------

WARNING: THERE ARE 3 CONSTRAINED CARTESIAN COORDINATES
   1   C   :   -0.000022216    0.000000099    0.021521700
   2   F   :   -0.005725821   -0.000000018   -0.007009284
   3   F   :    0.003261428   -0.005683841   -0.007552524
   4   F   :    0.003261294    0.005683947   -0.007552695

Difference to translation invariance:
           :    0.0007746847    0.0000001869   -0.0005928039

Difference to rotation invariance:
           :    0.0000004185   -0.0019323252   -0.0000004361

Norm of the cartesian gradient     ...    0.0272959567
RMS gradient                       ...    0.0078796640
MAX gradient                       ...    0.0215217001

-------
TIMINGS
-------

Total SCF gradient time            ...        1.456 sec

One electron gradient       ....       0.013 sec  (  0.9%)
RI-J Coulomb gradient       ....       0.474 sec  ( 32.5%)
COSX gradient               ....       0.444 sec  ( 30.5%)
XC gradient                 ....       0.156 sec  ( 10.7%)

Maximum memory used throughout the entire SCFGRAD-calculation: 37.2 MB
------------------------------------------------------------------------------
                         ORCA GEOMETRY RELAXATION STEP
------------------------------------------------------------------------------

Reading the OPT-File                    .... done
Getting information on internals        .... done
Copying old internal coords+grads       .... done
Making the new internal coordinates     .... (new redundants).... done
Validating the new internal coordinates .... (new redundants).... done
Calculating the B-matrix                .... done
Calculating the G,G- and P matrices     .... done
Transforming gradient to internals      .... done
Projecting the internal gradient        .... done
Number of atoms                         ....   4
Number of internal coordinates          ....   7
Current Energy                          ....  -337.631618655 Eh
Current gradient norm                   ....     0.027295957 Eh/bohr
Maximum allowed component of the step   ....  0.300
Current trust radius                    ....  0.300
Evaluating the initial hessian          ....  (Almloef) done
Projecting the Hessian                  .... done
Forming the augmented Hessian           .... done
Diagonalizing the augmented Hessian     .... done
Last element of RFO vector              ....  0.999960342
Lowest eigenvalues of augmented Hessian:
 -0.000054331  0.684895726  0.684895726  0.684950057 1000.000000000
Length of the computed step             ....  0.008906243
The final length of the internal step   ....  0.008906243
Converting the step to cartesian space:
 Initial RMS(Int)=    0.0033662433
Transforming coordinates:
 Iter   0:  RMS(Cart)=    0.0024602248 RMS(Int)=    0.0033662442
 Iter   1:  RMS(Cart)=    0.0000000032 RMS(Int)=    0.0000000059
Imposing constraints:
 Iter   0:  RMS(Cart)=    0.0000000003 RMS(Int)=    0.0000000006
CONVERGED
done
Storing new coordinates                 .... done

                                .--------------------.
          ----------------------|Geometry convergence|-------------------------
          Item                value                   Tolerance       Converged
          ---------------------------------------------------------------------
          RMS gradient        0.0023057085            0.0001000000      NO
          MAX gradient        0.0036720243            0.0003000000      NO
          RMS step            0.0033662433            0.0020000000      NO
          MAX step            0.0053610103            0.0040000000      NO
          ........................................................
          Max(Bonds)      0.0028      Max(Angles)    0.00
          Max(Dihed)        0.00      Max(Improp)    0.00
          ---------------------------------------------------------------------

The optimization has not yet converged - more geometry cycles are needed


    ---------------------------------------------------------------------------
                         Redundant Internal Coordinates
                            (Angstroem and degrees)

        Definition                    Value    dE/dq     Step     New-Value
    ----------------------------------------------------------------------------
     1. B(F   1,C   0)                1.3150 -0.003201  0.0025    1.3175   
     2. B(F   2,C   0)                1.3150 -0.003672  0.0028    1.3178   
     3. B(F   3,C   0)                1.3150 -0.003672  0.0028    1.3178   
     4. A(F   2,C   0,F   3)          109.50 -0.014044   -0.00    109.50 C 
     5. A(F   1,C   0,F   2)          109.50 -0.004954   -0.00    109.50 C 
     6. A(F   1,C   0,F   3)          109.50 -0.004954   -0.00    109.50 C 
     7. I(F   1,F   3,F   2,C   0)     54.66  0.016964    0.00     54.66   
    ----------------------------------------------------------------------------

         *************************************************************
         *                GEOMETRY OPTIMIZATION CYCLE   2            *
         *************************************************************
---------------------------------
CARTESIAN COORDINATES (ANGSTROEM)
---------------------------------
  C      0.000101   -0.000000    0.000678
  F      1.242427   -0.000000   -0.437912
  F     -0.621264    1.076200   -0.437948
  F     -0.621264   -1.076200   -0.437948

----------------------------
CARTESIAN COORDINATES (A.U.)
----------------------------
  NO LB      ZA    FRAG     MASS         X           Y           Z
   0 C     6.0000    0    12.011    0.000191   -0.000000    0.001281
   1 F     9.0000    0    18.998    2.347846   -0.000000   -0.827535
   2 F     9.0000    0    18.998   -1.174019    2.033724   -0.827602
   3 F     9.0000    0    18.998   -1.174018   -2.033724   -0.827602

--------------------------------
INTERNAL COORDINATES (ANGSTROEM)
--------------------------------
 C      0   0   0     0.000000000000     0.00000000     0.00000000
 F      1   0   0     1.317473101944     0.00000000     0.00000000
 F      1   2   0     1.317836924414   109.49999999     0.00000000
 F      1   2   3     1.317836866622   109.49999999   120.07056365

---------------------------
INTERNAL COORDINATES (A.U.)
---------------------------
 C      0   0   0     0.000000000000     0.00000000     0.00000000
 F      1   0   0     2.489663351482     0.00000000     0.00000000
 F      1   2   0     2.490350876311   109.49999999     0.00000000
 F      1   2   3     2.490350767101   109.49999999   120.07056365



           ************************************************************
           *        Program running with 18 parallel MPI-processes    *
           *              working on a common directory               *
           ************************************************************
------------------------------------------------------------------------------
                   ___                                                        
                  /   \      - P O W E R E D   B Y -                         
                 /     \                                                     
                 |  |  |   _    _      __       _____    __    __             
                 |  |  |  | |  | |    /  \     |  _  \  |  |  /  |          
                  \  \/   | |  | |   /    \    | | | |  |  | /  /          
                 / \  \   | |__| |  /  /\  \   | |_| |  |  |/  /          
                |  |  |   |  __  | /  /__\  \  |    /   |      \           
                |  |  |   | |  | | |   __   |  |    \   |  |\   \          
                \     /   | |  | | |  |  |  |  | |\  \  |  | \   \       
                 \___/    |_|  |_| |__|  |__|  |_| \__\ |__|  \__/        
                                                                              
                      - O R C A' S   B I G   F R I E N D -                    
                                      &                                       
                       - I N T E G R A L  F E E D E R -                       
                                                                              
 v1 FN, 2020, v2 2021                                                         
------------------------------------------------------------------------------


Reading SHARK input file /beegfs/scratch/ispackman/PFAS_EPR_calcs/benchmark/JChemEd_CF3_radical/CF3_radical_109.5_degrees_IN-PROGRESS/CF3_radical_109.5_degrees.SHARKINP.tmp ... ok
----------------------
SHARK INTEGRAL PACKAGE
----------------------

Number of atoms                             ...      4
Number of basis functions                   ...    157
Number of shells                            ...     55
Maximum angular momentum                    ...      3
Integral batch strategy                     ... SHARK/LIBINT Hybrid
RI-J (if used) integral strategy            ... SPLIT-RIJ (Revised 2003 algorithm where possible)
Printlevel                                  ...      1
Contraction scheme used                     ... SEGMENTED contraction
Coulomb Range Separation                    ... NOT USED
Exchange Range Separation                   ... Long Range
   Mu parameter                             ...  0.250000
   Scaling (regular/separated)              ...  0.195728  0.804272
Finite Nucleus Model                        ... NOT USED
Auxiliary Coulomb fitting basis             ... AVAILABLE
   # of basis functions in Aux-J            ...    196
   # of shells in Aux-J                     ...     60
   Maximum angular momentum in Aux-J        ...      4
Auxiliary J/K fitting basis                 ... NOT available
Auxiliary Correlation fitting basis         ... NOT available
Auxiliary 'external' fitting basis          ... NOT available
Integral threshold                          ...     2.500000e-11
Primitive cut-off                           ...     2.500000e-12
Primitive pair pre-selection threshold      ...     2.500000e-12

Calculating pre-screening integrals         ... done (  0.0 sec) Dimension = 55
Organizing shell pair data                  ... done (  0.0 sec)
Shell pair information
Total number of shell pairs                 ...      1540
Shell pairs after pre-screening             ...      1504
Total number of primitive shell pairs       ...      4274
Primitive shell pairs kept                  ...      3539
          la=0 lb=0:    282 shell pairs
          la=1 lb=0:    354 shell pairs
          la=1 lb=1:    120 shell pairs
          la=2 lb=0:    276 shell pairs
          la=2 lb=1:    180 shell pairs
          la=2 lb=2:     78 shell pairs
          la=3 lb=0:     96 shell pairs
          la=3 lb=1:     60 shell pairs
          la=3 lb=2:     48 shell pairs
          la=3 lb=3:     10 shell pairs

Calculating one electron integrals          ... done (  0.0 sec)
Calculating RI/J V-Matrix + Cholesky decomp.... done (  0.0 sec)
Calculating Nuclear repulsion               ... done (  0.0 sec) ENN=    124.805182134014 Eh

SHARK setup successfully completed in   0.3 seconds

Maximum memory used throughout the entire GTOINT-calculation: 15.2 MB


           ************************************************************
           *        Program running with 18 parallel MPI-processes    *
           *              working on a common directory               *
           ************************************************************

Diagonalization of the overlap matrix:
Smallest eigenvalue                        ... 3.235e-04
Time for diagonalization                   ...    0.006 sec
Threshold for overlap eigenvalues          ... 1.000e-08
Number of eigenvalues below threshold      ... 0
Time for construction of square roots      ...    0.016 sec
Total time needed                          ...    0.022 sec

-------------------
DFT GRID GENERATION
-------------------

General Integration Accuracy     IntAcc      ... 4.388
Radial Grid Type                 RadialGrid  ... OptM3 with GC (2021)
Angular Grid (max. ang.)         AngularGrid ... 4 (Lebedev-302)
Angular grid pruning method      GridPruning ... 4 (adaptive)
Weight generation scheme         WeightScheme... Becke
Basis function cutoff            BFCut       ... 1.0000e-11
Integration weight cutoff        WCut        ... 1.0000e-14
Angular grids for H and He will be reduced by one unit
Partially contracted basis set               ... off
Rotationally invariant grid construction     ... off

Total number of grid points                  ...    25776
Total number of batches                      ...      405
Average number of points per batch           ...       63
Average number of grid points per atom       ...     6444
Time for grid setup =    0.166 sec

--------------------
COSX GRID GENERATION
--------------------

GRIDX 1
-------
General Integration Accuracy     IntAcc      ... 3.816
Radial Grid Type                 RadialGrid  ... OptM3 with GC (2021)
Angular Grid (max. ang.)         AngularGrid ... 1 (Lebedev-50)
Angular grid pruning method      GridPruning ... 4 (adaptive)
Weight generation scheme         WeightScheme... Becke
Basis function cutoff            BFCut       ... 1.0000e-11
Integration weight cutoff        WCut        ... 1.0000e-14
Angular grids for H and He will be reduced by one unit
Partially contracted basis set               ... on
Rotationally invariant grid construction     ... off

Total number of grid points                  ...     3269
Total number of batches                      ...       53
Average number of points per batch           ...       61
Average number of grid points per atom       ...      817
UseSFitting                                  ... on

GRIDX 2
-------
General Integration Accuracy     IntAcc      ... 4.020
Radial Grid Type                 RadialGrid  ... OptM3 with GC (2021)
Angular Grid (max. ang.)         AngularGrid ... 2 (Lebedev-110)
Angular grid pruning method      GridPruning ... 4 (adaptive)
Weight generation scheme         WeightScheme... Becke
Basis function cutoff            BFCut       ... 1.0000e-11
Integration weight cutoff        WCut        ... 1.0000e-14
Angular grids for H and He will be reduced by one unit
Partially contracted basis set               ... on
Rotationally invariant grid construction     ... off

Total number of grid points                  ...     9132
Total number of batches                      ...      145
Average number of points per batch           ...       62
Average number of grid points per atom       ...     2283
UseSFitting                                  ... on

GRIDX 3
-------
General Integration Accuracy     IntAcc      ... 4.338
Radial Grid Type                 RadialGrid  ... OptM3 with GC (2021)
Angular Grid (max. ang.)         AngularGrid ... 3 (Lebedev-194)
Angular grid pruning method      GridPruning ... 4 (adaptive)
Weight generation scheme         WeightScheme... Becke
Basis function cutoff            BFCut       ... 1.0000e-11
Integration weight cutoff        WCut        ... 1.0000e-14
Angular grids for H and He will be reduced by one unit
Partially contracted basis set               ... on
Rotationally invariant grid construction     ... off

Total number of grid points                  ...    19680
Total number of batches                      ...      310
Average number of points per batch           ...       63
Average number of grid points per atom       ...     4920
[...]
  VA   - Mayer's total valence
  BVA  - Mayer's bonded valence
  FA   - Mayer's free valence

  ATOM       NA         ZA         QA         VA         BVA        FA
  0 C      5.4628     6.0000     0.5372     3.8069     3.1561     0.6509
  1 F      9.1789     9.0000    -0.1789     1.0737     1.0699     0.0037
  2 F      9.1791     9.0000    -0.1791     1.0732     1.0695     0.0037
  3 F      9.1791     9.0000    -0.1791     1.0732     1.0694     0.0037

  Mayer bond orders larger than 0.100000
B(  0-C ,  1-F ) :   1.0523 B(  0-C ,  2-F ) :   1.0519 B(  0-C ,  3-F ) :   1.0519 


-------
TIMINGS
-------

Total SCF time: 0 days 0 hours 0 min 3 sec 

Total time                  ....       3.153 sec
Sum of individual times     ....       2.579 sec  ( 81.8%)

Fock matrix formation       ....       1.769 sec  ( 56.1%)
  Split-RI-J                ....       0.338 sec  ( 19.1% of F)
  Chain of spheres X        ....       0.847 sec  ( 47.9% of F)
  XC integration            ....       0.255 sec  ( 14.4% of F)
    Basis function eval.    ....       0.017 sec  (  6.6% of XC)
    Density eval.           ....       0.022 sec  (  8.6% of XC)
    XC-Functional eval.     ....       0.009 sec  (  3.5% of XC)
    XC-Potential eval.      ....       0.039 sec  ( 15.1% of XC)
Diagonalization             ....       0.052 sec  (  1.6%)
Density matrix formation    ....       0.019 sec  (  0.6%)
Population analysis         ....       0.167 sec  (  5.3%)
Initial guess               ....       0.019 sec  (  0.6%)
Orbital Transformation      ....       0.000 sec  (  0.0%)
Orbital Orthonormalization  ....       0.011 sec  (  0.3%)
DIIS solution               ....       0.016 sec  (  0.5%)
Grid generation             ....       0.538 sec  ( 17.1%)

Maximum memory used throughout the entire SCF-calculation: 63.3 MB


-------------------------------------------------------------------------------
                          DFT DISPERSION CORRECTION                            
                                                                               
                              DFTD3 V3.1  Rev 1                                
                              USING zero damping                               
-------------------------------------------------------------------------------
The omegaB97X-D3 functional is recognized. Fit by Chai et al.
Active option DFTDOPT                   ...         3   

molecular C6(AA) [au] = 165.737702 


            DFT-D V3
 parameters
 s6 scaling factor         :     1.0000 
 rs6 scaling factor        :     1.2810 
 s8 scaling factor         :     1.0000 
 rs8 scaling factor        :     1.0940 
 Damping factor alpha6     :    14.0000 
 Damping factor alpha8     :    16.0000 
 ad hoc parameters k1-k3   :    16.0000     1.3333    -4.0000 

 Edisp/kcal,au: -0.048621307696  -0.000077482978 
 E6   /kcal   :  -0.006211941 
 E8   /kcal   :  -0.042409367 
 % E8         :  87.223830649 

-------------------------   ----------------
Dispersion correction           -0.000077483
-------------------------   ----------------


-------------------------   --------------------
FINAL SINGLE POINT ENERGY      -337.631654026999
-------------------------   --------------------

                                *** OPTIMIZATION RUN DONE ***

                            ***************************************
                            *     ORCA property calculations      *
                            ***************************************

                                    ---------------------
                                    Active property flags
                                    ---------------------
   (+) Dipole Moment


------------------------------------------------------------------------------
                       ORCA ELECTRIC PROPERTIES CALCULATION
------------------------------------------------------------------------------

Dipole Moment Calculation                       ... on
Quadrupole Moment Calculation                   ... off
Polarizability Calculation                      ... off
GBWName                                         ... /beegfs/scratch/ispackman/PFAS_EPR_calcs/benchmark/JChemEd_CF3_radical/CF3_radical_109.5_degrees_IN-PROGRESS/CF3_radical_109.5_degrees.gbw
Electron density                                ... /beegfs/scratch/ispackman/PFAS_EPR_calcs/benchmark/JChemEd_CF3_radical/CF3_radical_109.5_degrees_IN-PROGRESS/CF3_radical_109.5_degrees.scfp
The origin for moment calculation is the CENTER OF MASS  = (-0.000034,  0.000000 -0.683337)

-------------
DIPOLE MOMENT
-------------
                                X             Y             Z
Electronic contribution:      0.00112      -0.00000      -0.05132
Nuclear contribution   :      0.00011      -0.00000       0.21231
                        -----------------------------------------
Total Dipole Moment    :      0.00123      -0.00000       0.16099
                        -----------------------------------------
Magnitude (a.u.)       :      0.16099
Magnitude (Debye)      :      0.40921



--------------------
Rotational spectrum 
--------------------
 
Rotational constants in cm-1:     0.366989     0.366762     0.191395 
Rotational constants in MHz : 11002.063761 10995.237878  5737.863145 

 Dipole components along the rotational axes: 
x,y,z [a.u.] :    -0.000000    -0.001241     0.160986 
x,y,z [Debye]:    -0.000001    -0.003155     0.409193 

 


           ************************************************************
           *        Program running with 18 parallel MPI-processes    *
           *              working on a common directory               *
           ************************************************************

-------------------------------------------------------------------------------
                               ORCA SCF HESSIAN
-------------------------------------------------------------------------------

                   --------- SHARK INITIALIZATION DONE ---------

Hessian of the Kohn-Sham DFT energy:
Kohn-Sham wavefunction type                      ... UKS
Hartree-Fock exchange scaling                    ...    0.196
Number of operators                              ...    2
Number of atoms                                  ...    4
Basis set dimensions                             ...  157
Integral neglect threshold                       ... 2.5e-11
Integral primitive cutoff                        ... 2.5e-12

Setting up DFT Hessian calculations              ... 

HESS GRID
---------

General Integration Accuracy     IntAcc      ... 4.629
Radial Grid Type                 RadialGrid  ... OptM3 with GC (2021)
Angular Grid (max. ang.)         AngularGrid ... 5 (Lebedev-434)
Angular grid pruning method      GridPruning ... 4 (adaptive)
Weight generation scheme         WeightScheme... Becke
Basis function cutoff            BFCut       ... 1.0000e-11
Integration weight cutoff        WCut        ... 1.0000e-14
Angular grids for H and He will be reduced by one unit
Partially contracted basis set               ... off
Rotationally invariant grid construction     ... off

Total number of grid points                  ...    39953
Total number of batches                      ...      627
Average number of points per batch           ...       63
Average number of grid points per atom       ...     9988

Building densities                               ... done   (      0.0 sec)
Calculating rho(r) on the grid                   ... done   (      0.2 sec)
Building xc-kernel on the grid                   ... done   (      0.1 sec)
                                                     done   (      0.7 sec)

Nuclear repulsion Hessian  (SHARK)               ... done   (      0.0 sec)

----------------------------------------------
Forming right-hand sides of CP-SCF equations     ...
----------------------------------------------
One electron integral derivatives  (SHARK)       ... done   (      0.0 sec)
Transforming the overlap derivative matrices     ... done   (      0.0 sec)
Making the Q(x) pseudodensities                  ... done   (      0.0 sec)
Adding the E*S(x)*S(y) terms to the Hessian      ... done   (      0.0 sec)
Calculating energy weighted overlap derivatives  ... done   (      0.0 sec)
Two electron integral derivatives (SHARK-RI)     ... done   (      2.4 sec)
Exchange-correlation integral derivatives        ... done   (      2.4 sec)
tr(F(y)Q(x)) contribution to the Hessian         ... done   (      0.0 sec)
Response fock operator R(S(x)) (SHARK-RIJCOSX)   ... done   (      0.9 sec)
XC Response fock operator R(S(x))                ... done   (      0.5 sec)
tr(F(y)S(x)) contribution to the Hessian         ... done   (      0.0 sec)
Transforming and finalizing RHSs                 ... done   (      0.0 sec)

----------------------------------------------
Solving the CP-SCF equations (RIJCOSX)           ...
----------------------------------------------
     CP-SCF ITERATION   0:   1.6074e-01 (   0.5 sec   0/ 12 done)
     CP-SCF ITERATION   1:   4.1925e-02 (   0.5 sec   0/ 12 done)
     CP-SCF ITERATION   2:   1.2626e-02 (   0.4 sec   0/ 12 done)
     CP-SCF ITERATION   3:   3.3544e-03 (   0.5 sec   0/ 12 done)
     CP-SCF ITERATION   4:   1.0745e-03 (   0.4 sec   0/ 12 done)
     CP-SCF ITERATION   5:   4.4574e-04 (   0.5 sec   1/ 12 done)
     CP-SCF ITERATION   6:   1.1935e-04 (   0.5 sec   9/ 12 done)
     CP-SCF ITERATION   7:   2.6482e-05 (   0.4 sec  12/ 12 done)
                    *** THE CP-SCF HAS CONVERGED ***

                                                 ... done   (      3.9 sec)
Forming perturbed density Hessian contributions  ... done   (      0.0 sec)
2nd integral derivative contribs (SHARK-RI)      ... done   (      6.6 sec)
Exchange-correlation Hessian                     ... done   (      0.9 sec)
Dispersion correction in the Hessian             ... done   (      0.1 sec)
Dipole derivatives                               ... (center of mass: -0.000034,  0.000000 -0.683337)done   (      0.1 sec)

Total SCF Hessian time: 0 days 0 hours 0 min 19 sec 

Writing the Hessian file to the disk             ... done


Maximum memory used throughout the entire SCFHESS-calculation: 141.4 MB

-----------------------
VIBRATIONAL FREQUENCIES
-----------------------

Scaling factor for frequencies =  1.000000000  (already applied!)

   0:         0.00 cm**-1
   1:         0.00 cm**-1
   2:         0.00 cm**-1
   3:         0.00 cm**-1
   4:         0.00 cm**-1
   5:         0.00 cm**-1
   6:       523.34 cm**-1
   7:       523.41 cm**-1
   8:       721.94 cm**-1
   9:      1111.17 cm**-1
  10:      1241.24 cm**-1
  11:      1243.02 cm**-1


------------
NORMAL MODES
------------

These modes are the Cartesian displacements weighted by the diagonal matrix
M(i,i)=1/sqrt(m[i]) where m[i] is the mass of the displaced atom
Thus, these vectors are normalized but *not* orthogonal

                  0          1          2          3          4          5    
      0       0.000000   0.000000   0.000000   0.000000   0.000000   0.000000
      1       0.000000   0.000000   0.000000   0.000000   0.000000   0.000000
      2       0.000000   0.000000   0.000000   0.000000   0.000000   0.000000
      3       0.000000   0.000000   0.000000   0.000000   0.000000   0.000000
      4       0.000000   0.000000   0.000000   0.000000   0.000000   0.000000
      5       0.000000   0.000000   0.000000   0.000000   0.000000   0.000000
      6       0.000000   0.000000   0.000000   0.000000   0.000000   0.000000
      7       0.000000   0.000000   0.000000   0.000000   0.000000   0.000000
      8       0.000000   0.000000   0.000000   0.000000   0.000000   0.000000
      9       0.000000   0.000000   0.000000   0.000000   0.000000   0.000000
     10       0.000000   0.000000   0.000000   0.000000   0.000000   0.000000
     11       0.000000   0.000000   0.000000   0.000000   0.000000   0.000000
                  6          7          8          9         10         11    
      0      -0.323429   0.000212   0.000599  -0.006812  -0.000192  -0.897119
      1       0.000212   0.323287  -0.000000   0.000002   0.897178  -0.000192
      2       0.000377  -0.000000  -0.605696  -0.816161   0.000002   0.005328
      3      -0.472557   0.000310   0.441189  -0.283584   0.000072   0.334050
      4      -0.000399  -0.609246   0.000000  -0.000000  -0.046365   0.000010
      5      -0.048225   0.000032   0.127798   0.171041  -0.000029  -0.134612
      6       0.338211  -0.468668  -0.220784   0.143946   0.123636   0.116539
      7       0.468863   0.202121   0.382174  -0.248216  -0.260452  -0.121705
      8       0.024021   0.041616   0.127569   0.172478   0.115597   0.065597
      9       0.338825   0.468224  -0.220784   0.143945  -0.123586   0.116592
     10      -0.468598   0.202735  -0.382174   0.248215  -0.260401   0.121816
     11       0.023966  -0.041647   0.127569   0.172478  -0.115569   0.065647


-----------
IR SPECTRUM
-----------

 Mode   freq       eps      Int      T**2         TX        TY        TZ
       cm**-1   L/(mol*cm) km/mol    a.u.
----------------------------------------------------------------------------
  6:    523.34   0.000298    1.51  0.000178  (-0.013329  0.000009  0.000028)
  7:    523.41   0.000296    1.49  0.000176  ( 0.000009  0.013275 -0.000000)
  8:    721.94   0.002369   11.97  0.001024  ( 0.000110 -0.000000 -0.031998)
  9:   1111.17   0.008306   41.97  0.002333  (-0.001010  0.000000 -0.048287)
 10:   1241.24   0.070564  356.60  0.017741  (-0.000028  0.133194  0.000000)
 11:   1243.02   0.070619  356.88  0.017729  (-0.133150 -0.000028  0.000268)

* The epsilon (eps) is given for a Dirac delta lineshape.
** The dipole moment derivative (T) already includes vibrational overlap.

The first frequency considered to be a vibration is 6
The total number of vibrations considered is 6


--------------------------
THERMOCHEMISTRY AT 298.15K
--------------------------

Temperature         ... 298.15 K
Pressure            ... 1.00 atm
Total Mass          ... 69.00 AMU

Throughout the following assumptions are being made:
  (1) The electronic state is orbitally nondegenerate
      but the spin degeneracy is treated
  (2) There are no thermally accessible electronically excited states
  (3) Hindered rotations indicated by low frequency modes are not
      treated as such but are treated as vibrations and this may
      cause some error
  (4) All equations used are the standard statistical mechanics
      equations for an ideal gas
  (5) All vibrations are strictly harmonic

freq.     523.34  E(vib)   ...       0.13 
freq.     523.41  E(vib)   ...       0.13 
freq.     721.94  E(vib)   ...       0.07 
freq.    1111.17  E(vib)   ...       0.01 
freq.    1241.24  E(vib)   ...       0.01 
freq.    1243.02  E(vib)   ...       0.01 

------------
INNER ENERGY
------------

The inner energy is: U= E(el) + E(ZPE) + E(vib) + E(rot) + E(trans)
    E(el)   - is the total energy from the electronic structure calculation
              = E(kin-el) + E(nuc-el) + E(el-el) + E(nuc-nuc)
    E(ZPE)  - the the zero temperature vibrational energy from the frequency calculation
    E(vib)  - the the finite temperature correction to E(ZPE) due to population
              of excited vibrational states
    E(rot)  - is the rotational thermal energy
    E(trans)- is the translational thermal energy

Summary of contributions to the inner energy U:
Electronic energy                ...   -337.63165403 Eh
Zero point energy                ...      0.01222037 Eh       7.67 kcal/mol
Thermal vibrational correction   ...      0.00057111 Eh       0.36 kcal/mol
Thermal rotational correction    ...      0.00141627 Eh       0.89 kcal/mol
Thermal translational correction ...      0.00141627 Eh       0.89 kcal/mol
-----------------------------------------------------------------------
Total thermal energy                   -337.61603000 Eh


Summary of corrections to the electronic energy:
(perhaps to be used in another calculation)
Total thermal correction                  0.00340365 Eh       2.14 kcal/mol
Non-thermal (ZPE) correction              0.01222037 Eh       7.67 kcal/mol
-----------------------------------------------------------------------
Total correction                          0.01562403 Eh       9.80 kcal/mol


--------
ENTHALPY
--------

The enthalpy is H = U + kB*T
                kB is Boltzmann's constant
Total free energy                 ...   -337.61603000 Eh 
Thermal Enthalpy correction       ...      0.00094421 Eh       0.59 kcal/mol
-----------------------------------------------------------------------
Total Enthalpy                    ...   -337.61508579 Eh


Note: Rotational entropy computed according to Herzberg 
Infrared and Raman Spectra, Chapter V,1, Van Nostrand Reinhold, 1945 
Point Group:  Cs, Symmetry Number:   1  
Rotational constants in cm-1:     0.366989     0.366762     0.191395 

Vibrational entropy computed according to the QRRHO of S. Grimme
Chem.Eur.J. 2012 18 9955


-------
ENTROPY
-------

The entropy contributions are T*S = T*(S(el)+S(vib)+S(rot)+S(trans))
     S(el)   - electronic entropy
     S(vib)  - vibrational entropy
     S(rot)  - rotational entropy
     S(trans)- translational entropy
The entropies will be listed as multiplied by the temperature to get
units of energy

Electronic entropy                ...      0.00065446 Eh      0.41 kcal/mol
Vibrational entropy               ...      0.00076806 Eh      0.48 kcal/mol
Rotational entropy                ...      0.01123813 Eh      7.05 kcal/mol
Translational entropy             ...      0.01834582 Eh     11.51 kcal/mol
-----------------------------------------------------------------------
Final entropy term                ...      0.03100647 Eh     19.46 kcal/mol

In case the symmetry of your molecule has not been determined correctly
or in case you have a reason to use a different symmetry number we print 
out the resulting rotational entropy values for sn=1,12 :
 --------------------------------------------------------
|  sn= 1 | S(rot)=       0.01123813 Eh      7.05 kcal/mol|
|  sn= 2 | S(rot)=       0.01058368 Eh      6.64 kcal/mol|
|  sn= 3 | S(rot)=       0.01020085 Eh      6.40 kcal/mol|
|  sn= 4 | S(rot)=       0.00992922 Eh      6.23 kcal/mol|
|  sn= 5 | S(rot)=       0.00971853 Eh      6.10 kcal/mol|
|  sn= 6 | S(rot)=       0.00954639 Eh      5.99 kcal/mol|
|  sn= 7 | S(rot)=       0.00940084 Eh      5.90 kcal/mol|
|  sn= 8 | S(rot)=       0.00927477 Eh      5.82 kcal/mol|
|  sn= 9 | S(rot)=       0.00916356 Eh      5.75 kcal/mol|
|  sn=10 | S(rot)=       0.00906408 Eh      5.69 kcal/mol|
|  sn=11 | S(rot)=       0.00897409 Eh      5.63 kcal/mol|
|  sn=12 | S(rot)=       0.00889193 Eh      5.58 kcal/mol|
 --------------------------------------------------------


-------------------
GIBBS FREE ENERGY
-------------------

The Gibbs free energy is G = H - T*S

Total enthalpy                    ...   -337.61508579 Eh 
Total entropy correction          ...     -0.03100647 Eh    -19.46 kcal/mol
-----------------------------------------------------------------------
Final Gibbs free energy         ...   -337.64609226 Eh

For completeness - the Gibbs free energy minus the electronic energy
G-E(el)                           ...     -0.01443823 Eh     -9.06 kcal/mol


Timings for individual modules:

Sum of individual times         ...      124.624 sec (=   2.077 min)
GTO integral calculation        ...       42.977 sec (=   0.716 min)  34.5 %
SCF iterations                  ...       46.740 sec (=   0.779 min)  37.5 %
SCF Gradient evaluation         ...       12.616 sec (=   0.210 min)  10.1 %
Geometry relaxation             ...        0.240 sec (=   0.004 min)   0.2 %
Analytical frequency calculation...       22.050 sec (=   0.367 min)  17.7 %
                             ****ORCA TERMINATED NORMALLY****
TOTAL RUN TIME: 0 days 0 hours 2 minutes 16 seconds 501 msec

slurmID:    32260059
totalRuntime[s]:    136.630382063
