
                                 *****************
                                 * O   R   C   A *
                                 *****************

                                            #,                                       
                                            ###                                      
                                            ####                                     
                                            #####                                    
                                            ######                                   
                                           ########,                                 
                                     ,,################,,,,,                         
                               ,,#################################,,                 
                          ,,##########################################,,             
                       ,#########################################, ''#####,          
                    ,#############################################,,   '####,        
                  ,##################################################,,,,####,       
                ,###########''''           ''''###############################       
              ,#####''   ,,,,##########,,,,          '''####'''          '####       
            ,##' ,,,,###########################,,,                        '##       
           ' ,,###''''                  '''############,,,                           
         ,,##''                                '''############,,,,        ,,,,,,###''
      ,#''                                            '''#######################'''  
     '                                                          ''''####''''         
             ,#######,   #######,   ,#######,      ##                                
            ,#'     '#,  ##    ##  ,#'     '#,    #''#        ######   ,####,        
            ##       ##  ##   ,#'  ##            #'  '#       #        #'  '#        
            ##       ##  #######   ##           ,######,      #####,   #    #        
            '#,     ,#'  ##    ##  '#,     ,#' ,#      #,         ##   #,  ,#        
             '#######'   ##     ##  '#######'  #'      '#     #####' # '####'        



                  #######################################################
                  #                        -***-                        #
                  #          Department of theory and spectroscopy      #
                  #    Directorship and core code : Frank Neese         #
                  #        Max Planck Institute fuer Kohlenforschung    #
                  #                Kaiser Wilhelm Platz 1               #
                  #                 D-45470 Muelheim/Ruhr               #
                  #                      Germany                        #
                  #                                                     #
                  #                  All rights reserved                #
                  #                        -***-                        #
                  #######################################################


                         Program Version 5.0.4 -  RELEASE  -


 With contributions from (in alphabetic order):
   Daniel Aravena         : Magnetic Suceptibility
   Michael Atanasov       : Ab Initio Ligand Field Theory (pilot matlab implementation)
   Alexander A. Auer      : GIAO ZORA, VPT2 properties, NMR spectrum
   Ute Becker             : Parallelization
   Giovanni Bistoni       : ED, misc. LED, open-shell LED, HFLD
   Martin Brehm           : Molecular dynamics
   Dmytro Bykov           : SCF Hessian
   Vijay G. Chilkuri      : MRCI spin determinant printing, contributions to CSF-ICE
   Dipayan Datta          : RHF DLPNO-CCSD density
   Achintya Kumar Dutta   : EOM-CC, STEOM-CC
   Dmitry Ganyushin       : Spin-Orbit,Spin-Spin,Magnetic field MRCI
   Miquel Garcia          : C-PCM and meta-GGA Hessian, CC/C-PCM, Gaussian charge scheme
   Yang Guo               : DLPNO-NEVPT2, F12-NEVPT2, CIM, IAO-localization
   Andreas Hansen         : Spin unrestricted coupled pair/coupled cluster methods
   Benjamin Helmich-Paris : MC-RPA, TRAH-SCF, COSX integrals
   Lee Huntington         : MR-EOM, pCC
   Robert Izsak           : Overlap fitted RIJCOSX, COSX-SCS-MP3, EOM
   Marcus Kettner         : VPT2
   Christian Kollmar      : KDIIS, OOCD, Brueckner-CCSD(T), CCSD density, CASPT2, CASPT2-K
   Simone Kossmann        : Meta GGA functionals, TD-DFT gradient, OOMP2, MP2 Hessian
   Martin Krupicka        : Initial AUTO-CI
   Lucas Lang             : DCDCAS
   Marvin Lechner         : AUTO-CI (C++ implementation), FIC-MRCC
   Dagmar Lenk            : GEPOL surface, SMD
   Dimitrios Liakos       : Extrapolation schemes; Compound Job, initial MDCI parallelization
   Dimitrios Manganas     : Further ROCIS development; embedding schemes
   Dimitrios Pantazis     : SARC Basis sets
   Anastasios Papadopoulos: AUTO-CI, single reference methods and gradients
   Taras Petrenko         : DFT Hessian,TD-DFT gradient, ASA, ECA, R-Raman, ABS, FL, XAS/XES, NRVS
   Peter Pinski           : DLPNO-MP2, DLPNO-MP2 Gradient
   Christoph Reimann      : Effective Core Potentials
   Marius Retegan         : Local ZFS, SOC
   Christoph Riplinger    : Optimizer, TS searches, QM/MM, DLPNO-CCSD(T), (RO)-DLPNO pert. Triples
   Tobias Risthaus        : Range-separated hybrids, TD-DFT gradient, RPA, STAB
   Michael Roemelt        : Original ROCIS implementation
   Masaaki Saitow         : Open-shell DLPNO-CCSD energy and density
   Barbara Sandhoefer     : DKH picture change effects
   Avijit Sen             : IP-ROCIS
   Kantharuban Sivalingam : CASSCF convergence, NEVPT2, FIC-MRCI
   Bernardo de Souza      : ESD, SOC TD-DFT
   Georgi Stoychev        : AutoAux, RI-MP2 NMR, DLPNO-MP2 response
   Willem Van den Heuvel  : Paramagnetic NMR
   Boris Wezisla          : Elementary symmetry handling
   Frank Wennmohs         : Technical directorship


 We gratefully acknowledge several colleagues who have allowed us to
 interface, adapt or use parts of their codes:
   Stefan Grimme, W. Hujo, H. Kruse, P. Pracht,  : VdW corrections, initial TS optimization,
                  C. Bannwarth, S. Ehlert          DFT functionals, gCP, sTDA/sTD-DF
   Ed Valeev, F. Pavosevic, A. Kumar             : LibInt (2-el integral package), F12 methods
   Garnet Chan, S. Sharma, J. Yang, R. Olivares  : DMRG
   Ulf Ekstrom                                   : XCFun DFT Library
   Mihaly Kallay                                 : mrcc  (arbitrary order and MRCC methods)
   Jiri Pittner, Ondrej Demel                    : Mk-CCSD
   Frank Weinhold                                : gennbo (NPA and NBO analysis)
   Christopher J. Cramer and Donald G. Truhlar   : smd solvation model
   Lars Goerigk                                  : TD-DFT with DH, B97 family of functionals
   V. Asgeirsson, H. Jonsson                     : NEB implementation
   FAccTs GmbH                                   : IRC, NEB, NEB-TS, DLPNO-Multilevel, CI-OPT
                                                   MM, QMMM, 2- and 3-layer-ONIOM, Crystal-QMMM,
                                                   LR-CPCM, SF, NACMEs, symmetry and pop. for TD-DFT,
                                                   nearIR, NL-DFT gradient (VV10), updates on ESD,
                                                   ML-optimized integration grids
   S Lehtola, MJT Oliveira, MAL Marques          : LibXC Library
   Liviu Ungur et al                             : ANISO software


 Your calculation uses the libint2 library for the computation of 2-el integrals
 For citations please refer to: http://libint.valeyev.net

 Your ORCA version has been built with support for libXC version: 5.1.0
 For citations please refer to: https://tddft.org/programs/libxc/

 This ORCA versions uses:
   CBLAS   interface :  Fast vector & matrix operations
   LAPACKE interface :  Fast linear algebra routines
   SCALAPACK package :  Parallel linear algebra routines
   Shared memory     :  Shared parallel matrices
   BLAS/LAPACK       :  OpenBLAS 0.3.15  USE64BITINT DYNAMIC_ARCH NO_AFFINITY SkylakeX SINGLE_THREADED
        Core in use  :  SkylakeX
   Copyright (c) 2011-2014, The OpenBLAS Project


Your calculation utilizes the atom-pairwise dispersion correction
with the zero-damping scheme (D30)
Cite in your paper:
S.Grimme, J.Antony, S.Ehrlich and H.Krieg, J.Chem.Phys., 132, (2010), 154104 
   

XCFun DFT library Copyright 2009-2010 Ulf Ekstrom and contributors.
See http://admol.org/xcfun for more information.
This is free software; see the source code for copying conditions.
There is ABSOLUTELY NO WARRANTY; not even for MERCHANTABILITY or FITNESS FOR A PARTICULAR PURPOSE.
For details see the documentation.
Scientific users of this library should cite U. Ekstrom, L. Visscher, R. Bast, A. J. Thorvaldsen and K. Ruud;
J.Chem.Theor.Comp. 2010, DOI: 10.1021/ct100117s
XCFun Version 0.99 

================================================================================

----- Orbital basis set information -----
Your calculation utilizes the basis: def2-TZVPD
   F. Weigend and R. Ahlrichs, Phys. Chem. Chem. Phys. 7, 3297 (2005).
   D. Rappoport and F. Furche, J. Chem. Phys. 133 134105 (2010).

----- AuxJ basis set information -----
Your calculation utilizes the auxiliary basis: def2/J
   F. Weigend, Phys. Chem. Chem. Phys. 8, 1057 (2006).

================================================================================
                                        WARNINGS
                       Please study these warnings very carefully!
================================================================================


WARNING: Geometry Optimization
  ===> : Switching off AutoStart
         For restart on a previous wavefunction, please use MOREAD

INFO   : the flag for use of the SHARK integral package has been found!

================================================================================
                                       INPUT FILE
================================================================================
NAME = /beegfs/scratch/ispackman/PFAS_EPR_calcs/benchmark/JChemEd_CF3_radical/CF3_radical_107.0_degrees_IN-PROGRESS/CF3_radical_107.0_degrees.inp
|  1> ! UKS TightSCF wB97x-D3 def2-TZVPD xyzfile opt freq
|  2> 
|  3> # CF3 radical 107.0 degrees fixed
|  4> 
|  5> %maxcore 1000
|  6> %pal
|  7> nprocs 18
|  8> end
|  9> 
| 10> %geom Constraints
| 11>         { A * 0 * C }
| 12>     end
| 13> end
| 14> * xyz 0 2
| 15> C 0.00 0.00 0.00
| 16> F 1.2206013439 0.0000000000 -0.4892416165
| 17> F -0.6103006720 1.0570717717 -0.4892416165
| 18> F -0.6103006720 -1.0570717717 -0.4892416165
| 19> **                         ****END OF INPUT****
================================================================================

                       *****************************
                       * Geometry Optimization Run *
                       *****************************

Geometry optimization settings:
Update method            Update   .... BFGS
Choice of coordinates    CoordSys .... Z-matrix Internals
Initial Hessian          InHess   .... Almoef's Model

Convergence Tolerances:
Energy Change            TolE     ....  5.0000e-06 Eh
Max. Gradient            TolMAXG  ....  3.0000e-04 Eh/bohr
RMS Gradient             TolRMSG  ....  1.0000e-04 Eh/bohr
Max. Displacement        TolMAXD  ....  4.0000e-03 bohr
RMS Displacement         TolRMSD  ....  2.0000e-03 bohr
Strict Convergence                ....  False
------------------------------------------------------------------------------
                        ORCA OPTIMIZATION COORDINATE SETUP
------------------------------------------------------------------------------

The optimization will be done in new redundant internal coordinates
Making redundant internal coordinates   ...  (new redundants) done
Evaluating the initial hessian          ...  (Almloef) done
Evaluating the coordinates              ...  done
Calculating the B-matrix                .... done
Calculating the G-matrix                .... done
Diagonalizing the G-matrix              .... done
Imposing constraints:
 Iter   0:  RMS(Cart)=    0.0000000000 RMS(Int)=    0.0000000000
CONVERGED
Will constrain atom 0 coordinate 1 
Will constrain atom 0 coordinate 2 
Will constrain atom 1 coordinate 2 
The first mode is                       ....    1
The number of degrees of freedom        ....    6
Storing new coordinates                 .... done

    -----------------------------------------------------------------
                    Redundant Internal Coordinates


    -----------------------------------------------------------------
         Definition                    Initial Value    Approx d2E/dq
    -----------------------------------------------------------------
      1. B(F   1,C   0)                  1.3150         0.684896   
      2. B(F   2,C   0)                  1.3150         0.684896   
      3. B(F   3,C   0)                  1.3150         0.684896   
      4. A(F   2,C   0,F   3)          107.0000         0.440101 C 
      5. A(F   1,C   0,F   2)          107.0000         0.440101 C 
      6. A(F   1,C   0,F   3)          107.0000         0.440101 C 
      7. I(F   1,F   3,F   2,C   0)     60.5590         0.007532   
    -----------------------------------------------------------------

Number of atoms                         .... 4
Number of degrees of freedom            .... 7

         *************************************************************
         *                GEOMETRY OPTIMIZATION CYCLE   1            *
         *************************************************************
---------------------------------
CARTESIAN COORDINATES (ANGSTROEM)
---------------------------------
  C      0.000000    0.000000    0.000000
  F      1.220601    0.000000   -0.489242
  F     -0.610301    1.057072   -0.489242
  F     -0.610301   -1.057072   -0.489242

----------------------------
CARTESIAN COORDINATES (A.U.)
----------------------------
  NO LB      ZA    FRAG     MASS         X           Y           Z
   0 C     6.0000    0    12.011    0.000000    0.000000    0.000000
   1 F     9.0000    0    18.998    2.306602    0.000000   -0.924533
   2 F     9.0000    0    18.998   -1.153301    1.997576   -0.924533
   3 F     9.0000    0    18.998   -1.153301   -1.997576   -0.924533

--------------------------------
INTERNAL COORDINATES (ANGSTROEM)
--------------------------------
 C      0   0   0     0.000000000000     0.00000000     0.00000000
 F      1   0   0     1.315000000017     0.00000000     0.00000000
 F      1   2   0     1.315000000032   107.00000000     0.00000000
 F      1   2   3     1.315000000032   107.00000000   114.40420739

---------------------------
INTERNAL COORDINATES (A.U.)
---------------------------
 C      0   0   0     0.000000000000     0.00000000     0.00000000
 F      1   0   0     2.484989866140     0.00000000     0.00000000
 F      1   2   0     2.484989866167   107.00000000     0.00000000
 F      1   2   3     2.484989866167   107.00000000   114.40420739

---------------------
BASIS SET INFORMATION
---------------------
There are 2 groups of distinct atoms

 Group   1 Type C   : 12s6p3d1f contracted to 6s3p3d1f pattern {621111/411/111/1}
 Group   2 Type F   : 12s7p3d1f contracted to 6s4p3d1f pattern {621111/4111/111/1}

Atom   0C    basis set group =>   1
Atom   1F    basis set group =>   2
Atom   2F    basis set group =>   2
Atom   3F    basis set group =>   2
---------------------------------
AUXILIARY/J BASIS SET INFORMATION
---------------------------------
There are 2 groups of distinct atoms

 Group   1 Type C   : 12s5p4d2f1g contracted to 6s4p3d1f1g pattern {711111/2111/211/2/1}
 Group   2 Type F   : 12s5p4d2f1g contracted to 6s4p3d1f1g pattern {711111/2111/211/2/1}

Atom   0C    basis set group =>   1
Atom   1F    basis set group =>   2
Atom   2F    basis set group =>   2
Atom   3F    basis set group =>   2


           ************************************************************
           *        Program running with 18 parallel MPI-processes    *
           *              working on a common directory               *
           ************************************************************
------------------------------------------------------------------------------
                           ORCA GTO INTEGRAL CALCULATION
                           -- RI-GTO INTEGRALS CHOSEN --
------------------------------------------------------------------------------
------------------------------------------------------------------------------
                   ___                                                        
                  /   \      - P O W E R E D   B Y -                         
                 /     \                                                     
                 |  |  |   _    _      __       _____    __    __             
                 |  |  |  | |  | |    /  \     |  _  \  |  |  /  |          
                  \  \/   | |  | |   /    \    | | | |  |  | /  /          
                 / \  \   | |__| |  /  /\  \   | |_| |  |  |/  /          
                |  |  |   |  __  | /  /__\  \  |    /   |      \           
                |  |  |   | |  | | |   __   |  |    \   |  |\   \          
                \     /   | |  | | |  |  |  |  | |\  \  |  | \   \       
                 \___/    |_|  |_| |__|  |__|  |_| \__\ |__|  \__/        
                                                                              
                      - O R C A' S   B I G   F R I E N D -                    
                                      &                                       
                       - I N T E G R A L  F E E D E R -                       
                                                                              
 v1 FN, 2020, v2 2021                                                         
------------------------------------------------------------------------------


Reading SHARK input file /beegfs/scratch/ispackman/PFAS_EPR_calcs/benchmark/JChemEd_CF3_radical/CF3_radical_107.0_degrees_IN-PROGRESS/CF3_radical_107.0_degrees.SHARKINP.tmp ... ok
----------------------
SHARK INTEGRAL PACKAGE
----------------------

Number of atoms                             ...      4
Number of basis functions                   ...    157
Number of shells                            ...     55
Maximum angular momentum                    ...      3
Integral batch strategy                     ... SHARK/LIBINT Hybrid
RI-J (if used) integral strategy            ... SPLIT-RIJ (Revised 2003 algorithm where possible)
Printlevel                                  ...      1
Contraction scheme used                     ... SEGMENTED contraction
Coulomb Range Separation                    ... NOT USED
Exchange Range Separation                   ... Long Range
   Mu parameter                             ...  0.250000
   Scaling (regular/separated)              ...  0.195728  0.804272
Finite Nucleus Model                        ... NOT USED
Auxiliary Coulomb fitting basis             ... AVAILABLE
   # of basis functions in Aux-J            ...    196
   # of shells in Aux-J                     ...     60
   Maximum angular momentum in Aux-J        ...      4
Auxiliary J/K fitting basis                 ... NOT available
Auxiliary Correlation fitting basis         ... NOT available
Auxiliary 'external' fitting basis          ... NOT available
Integral threshold                          ...     2.500000e-11
Primitive cut-off                           ...     2.500000e-12
Primitive pair pre-selection threshold      ...     2.500000e-12

Calculating pre-screening integrals         ... done (  0.0 sec) Dimension = 55
Organizing shell pair data                  ... done (  0.0 sec)
Shell pair information
Total number of shell pairs                 ...      1540
Shell pairs after pre-screening             ...      1504
Total number of primitive shell pairs       ...      4274
Primitive shell pairs kept                  ...      3545
          la=0 lb=0:    282 shell pairs
          la=1 lb=0:    354 shell pairs
          la=1 lb=1:    120 shell pairs
          la=2 lb=0:    276 shell pairs
          la=2 lb=1:    180 shell pairs
          la=2 lb=2:     78 shell pairs
          la=3 lb=0:     96 shell pairs
          la=3 lb=1:     60 shell pairs
          la=3 lb=2:     48 shell pairs
          la=3 lb=3:     10 shell pairs

Calculating one electron integrals          ... done (  0.0 sec)
Calculating RI/J V-Matrix + Cholesky decomp.... done (  0.8 sec)
Calculating Nuclear repulsion               ... done (  0.0 sec) ENN=    126.015126436929 Eh

SHARK setup successfully completed in   6.6 seconds

Maximum memory used throughout the entire GTOINT-calculation: 15.2 MB


           ************************************************************
           *        Program running with 18 parallel MPI-processes    *
           *              working on a common directory               *
           ************************************************************
-------------------------------------------------------------------------------
                                 ORCA SCF
-------------------------------------------------------------------------------

------------
SCF SETTINGS
------------
Hamiltonian:
 Density Functional     Method          .... DFT(GTOs)
 Exchange Functional    Exchange        .... WB97X-D3
 Correlation Functional Correlation     .... WB97X-D3
 Gradients option       PostSCFGGA      .... off
 Hybrid DFT is turned on
   Fraction HF Exchange ScalHFX         ....  0.195728
   Scaling of DF-GGA-X  ScalDFX         ....  0.000000
   Scaling of DF-GGA-C  ScalDFC         ....  1.000000
   Scaling of DF-LDA-C  ScalLDAC        ....  1.000000
   Perturbative correction              ....  0.000000
   Density functional embedding theory  .... OFF
 Long-range corrected/Screened/Range-Separated Hybrid DFT is turned on
   Amount of maximum screened exact exchange              ....  0.804272
   Range separation parameter mu (erf(mu*r12)/r12)        ....  0.250000
 RI-approximation to the Coulomb term is turned on
   Number of AuxJ basis functions       .... 196
   RIJ-COSX (HFX calculated with COS-X)).... on


General Settings:
 Integral files         IntName         .... /beegfs/scratch/ispackman/PFAS_EPR_calcs/benchmark/JChemEd_CF3_radical/CF3_radical_107.0_degrees_IN-PROGRESS/CF3_radical_107.0_degrees
 Hartree-Fock type      HFTyp           .... UHF
 Total Charge           Charge          ....    0
 Multiplicity           Mult            ....    2
 Number of Electrons    NEL             ....   33
 Basis Dimension        Dim             ....  157
 Nuclear Repulsion      ENuc            ....    126.0151264369 Eh

Convergence Acceleration:
 DIIS                   CNVDIIS         .... on
   Start iteration      DIISMaxIt       ....    12
   Startup error        DIISStart       ....  0.200000
   # of expansion vecs  DIISMaxEq       ....     5
   Bias factor          DIISBfac        ....   1.050
   Max. coefficient     DIISMaxC        ....  10.000
 Trust-Rad. Augm. Hess. CNVTRAH         .... auto
   Auto Start mean grad. ratio tolernc. ....  1.125000
   Auto Start start iteration           ....    20
   Auto Start num. interpolation iter.  ....    10
   Max. Number of Micro iterations      ....    16
   Max. Number of Macro iterations      .... Maxiter - #DIIS iter
   Number of Davidson start vectors     ....     2
   Converg. threshold I  (grad. norm)   ....   1.000e-05
   Converg. threshold II (energy diff.) ....   1.000e-08
   Grad. Scal. Fac. for Micro threshold ....   0.100
   Minimum threshold for Micro iter.    ....   0.010
   NR start threshold (gradient norm)   ....   0.001
   Initial trust radius                 ....   0.400
   Minimum AH scaling param. (alpha)    ....   1.000
   Maximum AH scaling param. (alpha)    .... 1000.000
   Orbital update algorithm             .... Taylor
   White noise on init. David. guess    .... on
   Maximum white noise                  ....   0.010
   Quad. conv. algorithm                .... NR
 SOSCF                  CNVSOSCF        .... off
 Level Shifting         CNVShift        .... on
   Level shift para.    LevelShift      ....    0.2500
   Turn off err/grad.   ShiftErr        ....    0.0010
 Zerner damping         CNVZerner       .... off
 Static damping         CNVDamp         .... on
   Fraction old density DampFac         ....    0.7000
   Max. Damping (<1)    DampMax         ....    0.9800
   Min. Damping (>=0)   DampMin         ....    0.0000
   Turn off err/grad.   DampErr         ....    0.1000
 Fernandez-Rico         CNVRico         .... off

SCF Procedure:
 Maximum # iterations   MaxIter         ....   125
 SCF integral mode      SCFMode         .... Direct
   Integral package                     .... SHARK and LIBINT hybrid scheme
 Reset frequency        DirectResetFreq ....    20
 Integral Threshold     Thresh          ....  2.500e-11 Eh
 Primitive CutOff       TCut            ....  2.500e-12 Eh

Convergence Tolerance:
 Convergence Check Mode ConvCheckMode   .... Total+1el-Energy
 Convergence forced     ConvForced      .... 0
 Energy Change          TolE            ....  1.000e-08 Eh
 1-El. energy change                    ....  1.000e-05 Eh
 DIIS Error             TolErr          ....  5.000e-07


Diagonalization of the overlap matrix:
Smallest eigenvalue                        ... 3.306e-04
Time for diagonalization                   ...    0.005 sec
Threshold for overlap eigenvalues          ... 1.000e-08
Number of eigenvalues below threshold      ... 0
Time for construction of square roots      ...    0.018 sec
Total time needed                          ...    0.023 sec

Time for model grid setup =    0.062 sec

------------------------------
INITIAL GUESS: MODEL POTENTIAL
------------------------------
Loading Hartree-Fock densities                     ... done
Calculating cut-offs                               ... done
Initializing the effective Hamiltonian             ... done
Setting up the integral package (SHARK)            ... done
Starting the Coulomb interaction                   ... done (   0.5 sec)
Reading the grid                                   ... done
Mapping shells                                     ... done
Starting the XC term evaluation                    ... done (   0.0 sec)
  promolecular density results
     # of electrons  =     33.000132959
     EX              =    -35.098612418
     EC              =     -1.146007272
     EX+EC           =    -36.244619690
Transforming the Hamiltonian                       ... done (   0.0 sec)
Diagonalizing the Hamiltonian                      ... done (   0.0 sec)
Back transforming the eigenvectors                 ... done (   0.0 sec)
Now organizing SCF variables                       ... done
                      ------------------
                      INITIAL GUESS DONE (   0.8 sec)
                      ------------------
-------------------
DFT GRID GENERATION
-------------------

General Integration Accuracy     IntAcc      ... 4.388
Radial Grid Type                 RadialGrid  ... OptM3 with GC (2021)
Angular Grid (max. ang.)         AngularGrid ... 4 (Lebedev-302)
Angular grid pruning method      GridPruning ... 4 (adaptive)
Weight generation scheme         WeightScheme... Becke
Basis function cutoff            BFCut       ... 1.0000e-11
Integration weight cutoff        WCut        ... 1.0000e-14
Angular grids for H and He will be reduced by one unit
Partially contracted basis set               ... off
Rotationally invariant grid construction     ... off

Total number of grid points                  ...    25785
Total number of batches                      ...      405
Average number of points per batch           ...       63
Average number of grid points per atom       ...     6446
Time for grid setup =    0.162 sec

--------------------
COSX GRID GENERATION
--------------------

GRIDX 1
-------
General Integration Accuracy     IntAcc      ... 3.816
Radial Grid Type                 RadialGrid  ... OptM3 with GC (2021)
Angular Grid (max. ang.)         AngularGrid ... 1 (Lebedev-50)
Angular grid pruning method      GridPruning ... 4 (adaptive)
Weight generation scheme         WeightScheme... Becke
Basis function cutoff            BFCut       ... 1.0000e-11
Integration weight cutoff        WCut        ... 1.0000e-14
Angular grids for H and He will be reduced by one unit
Partially contracted basis set               ... on
Rotationally invariant grid construction     ... off

Total number of grid points                  ...     3270
Total number of batches                      ...       53
Average number of points per batch           ...       61
Average number of grid points per atom       ...      818
UseSFitting                                  ... on

GRIDX 2
-------
General Integration Accuracy     IntAcc      ... 4.020
Radial Grid Type                 RadialGrid  ... OptM3 with GC (2021)
Angular Grid (max. ang.)         AngularGrid ... 2 (Lebedev-110)
Angular grid pruning method      GridPruning ... 4 (adaptive)
Weight generation scheme         WeightScheme... Becke
Basis function cutoff            BFCut       ... 1.0000e-11
Integration weight cutoff        WCut        ... 1.0000e-14
Angular grids for H and He will be reduced by one unit
Partially contracted basis set               ... on
Rotationally invariant grid construction     ... off

Total number of grid points                  ...     9116
Total number of batches                      ...      145
Average number of points per batch           ...       62
Average number of grid points per atom       ...     2279
UseSFitting                                  ... on

GRIDX 3
-------
General Integration Accuracy     IntAcc      ... 4.338
Radial Grid Type                 RadialGrid  ... OptM3 with GC (2021)
Angular Grid (max. ang.)         AngularGrid ... 3 (Lebedev-194)
Angular grid pruning method      GridPruning ... 4 (adaptive)
Weight generation scheme         WeightScheme... Becke
Basis function cutoff            BFCut       ... 1.0000e-11
Integration weight cutoff        WCut        ... 1.0000e-14
Angular grids for H and He will be reduced by one unit
Partially contracted basis set               ... on
Rotationally invariant grid construction     ... off

Total number of grid points                  ...    19666
Total number of batches                      ...      308
Average number of points per batch           ...       63
Average number of grid points per atom       ...     4916
UseSFitting                                  ... on

Time for X-Grid setup             =    0.360 sec

--------------
SCF ITERATIONS
--------------
ITER       Energy         Delta-E        Max-DP      RMS-DP      [F,P]     Damp
               ***  Starting incremental Fock matrix formation  ***
  0   -337.5716050131   0.000000000000 0.01577205  0.00037450  0.0640716 0.7000
  1   -337.5953589456  -0.023753932556 0.00916907  0.00025235  0.0308085 0.7000
                               ***Turning on DIIS***
  2   -337.6054532312  -0.010094285637 0.01981918  0.00049049  0.0161173 0.0000
  3   -337.6237668848  -0.018313653548 0.00628260  0.00014317  0.0145565 0.0000
  4   -337.6265781649  -0.002811280123 0.00503379  0.00009059  0.0037094 0.0000
  5   -337.6268218981  -0.000243733177 0.00313455  0.00005636  0.0022840 0.0000
  6   -337.6268982981  -0.000076400045 0.00362762  0.00005507  0.0009745 0.0000
               *** Restarting incremental Fock matrix formation ***
                                   *** Resetting DIIS ***
  7   -337.6269291498  -0.000030851648 0.00053284  0.00000850  0.0001561 0.0000
  8   -337.6269299032  -0.000000753383 0.00017149  0.00000263  0.0000803 0.0000
  9   -337.6269300763  -0.000000173128 0.00008243  0.00000143  0.0000722 0.0000
 10   -337.6269301365  -0.000000060220 0.00004041  0.00000053  0.0000153 0.0000
                 **** Energy Check signals convergence ****

               *****************************************************
               *                     SUCCESS                       *
               *           SCF CONVERGED AFTER  11 CYCLES          *
               *****************************************************

Old exchange energy                            =    -10.539337204 Eh
New exchange energy                            =    -10.539316665 Eh
Exchange energy change after final integration =      0.000020539 Eh
Total energy after final integration           =   -337.626909600 Eh
Final COS-X integration done in                =     0.389 sec

----------------
TOTAL SCF ENERGY
----------------

Total Energy       :         -337.62690960 Eh           -9187.29528 eV

Components:
Nuclear Repulsion  :          126.01512644 Eh            3429.04592 eV
Electronic Energy  :         -463.64203604 Eh          -12616.34120 eV
One Electron Energy:         -718.87018205 Eh          -19561.45214 eV
Two Electron Energy:          255.22814602 Eh            6945.11094 eV
Max COSX asymmetry :            0.00000063 Eh               0.00002 eV

Virial components:
Potential Energy   :         -674.29500416 Eh          -18348.49988 eV
Kinetic Energy     :          336.66809456 Eh            9161.20460 eV
Virial Ratio       :            2.00284795


DFT components:
N(Alpha)           :       16.999876330186 electrons
N(Beta)            :       15.999901226524 electrons
N(Total)           :       32.999777556710 electrons
E(XC)              :      -26.201008115249 Eh       
DFET-embed. en.    :        0.000000000000 Eh       

---------------
SCF CONVERGENCE
---------------

  Last Energy change         ...   -3.2459e-09  Tolerance :   1.0000e-08
  Last MAX-Density change    ...    0.0000e+00  Tolerance :   1.0000e-07
  Last RMS-Density change    ...    0.0000e+00  Tolerance :   5.0000e-09
  Last DIIS Error            ...    2.4642e-06  Tolerance :   5.0000e-07

             **** THE GBW FILE WAS UPDATED (/beegfs/scratch/ispackman/PFAS_EPR_calcs/benchmark/JChemEd_CF3_radical/CF3_radical_107.0_degrees_IN-PROGRESS/CF3_radical_107.0_degrees.gbw) ****
             **** DENSITY /beegfs/scratch/ispackman/PFAS_EPR_calcs/benchmark/JChemEd_CF3_radical/CF3_radical_107.0_degrees_IN-PROGRESS/CF3_radical_107.0_degrees.scfp WAS UPDATED ****
             **** ENERGY FILE WAS UPDATED (/beegfs/scratch/ispackman/PFAS_EPR_calcs/benchmark/JChemEd_CF3_radical/CF3_radical_107.0_degrees_IN-PROGRESS/CF3_radical_107.0_degrees.en.tmp) ****
----------------------
UHF SPIN CONTAMINATION
----------------------

Warning: in a DFT calculation there is little theoretical justification to 
         calculate <S**2> as in Hartree-Fock theory. We will do it anyways
         but you should keep in mind that the values have only limited relevance

Expectation value of <S**2>     :     0.752021
Ideal value S*(S+1) for S=0.5   :     0.750000
Deviation                       :     0.002021

             **** THE GBW FILE WAS UPDATED (/beegfs/scratch/ispackman/PFAS_EPR_calcs/benchmark/JChemEd_CF3_radical/CF3_radical_107.0_degrees_IN-PROGRESS/CF3_radical_107.0_degrees.gbw) ****
             **** DENSITY /beegfs/scratch/ispackman/PFAS_EPR_calcs/benchmark/JChemEd_CF3_radical/CF3_radical_107.0_degrees_IN-PROGRESS/CF3_radical_107.0_degrees.scfp WAS UPDATED ****
----------------
ORBITAL ENERGIES
----------------
                 SPIN UP ORBITALS
  NO   OCC          E(Eh)            E(eV) 
   0   1.0000     -24.848241      -676.1550 
   1   1.0000     -24.848239      -676.1550 
   2   1.0000     -24.848232      -676.1548 
   3   1.0000     -10.545463      -286.9566 
   4   1.0000      -1.476209       -40.1697 
   5   1.0000      -1.377554       -37.4852 
   6   1.0000      -1.377549       -37.4850 
   7   1.0000      -0.839024       -22.8310 
   8   1.0000      -0.730762       -19.8850 
   9   1.0000      -0.730755       -19.8849 
  10   1.0000      -0.703746       -19.1499 
  11   1.0000      -0.607267       -16.5246 
  12   1.0000      -0.607265       -16.5245 
  13   1.0000      -0.563128       -15.3235 
  14   1.0000      -0.563116       -15.3232 
  15   1.0000      -0.539528       -14.6813 
  16   1.0000      -0.400659       -10.9025 
  17   0.0000       0.071751         1.9524 
  18   0.0000       0.105103         2.8600 
  19   0.0000       0.105103         2.8600 
  20   0.0000       0.113003         3.0750 
  21   0.0000       0.160327         4.3627 
  22   0.0000       0.160327         4.3627 
  23   0.0000       0.172459         4.6928 
  24   0.0000       0.172459         4.6928 
  25   0.0000       0.184529         5.0213 
  26   0.0000       0.231784         6.3072 
  27   0.0000       0.231788         6.3073 
  28   0.0000       0.239413         6.5148 
  29   0.0000       0.284294         7.7360 
  30   0.0000       0.331438         9.0189 
  31   0.0000       0.356433         9.6990 
  32   0.0000       0.356442         9.6993 
  33   0.0000       0.379947        10.3389 
  34   0.0000       0.388756        10.5786 
  35   0.0000       0.388758        10.5786 
  36   0.0000       0.409617        11.1462 
  37   0.0000       0.411353        11.1935 
  38   0.0000       0.411354        11.1935 
  39   0.0000       0.487863        13.2754 
  40   0.0000       0.487866        13.2755 
  41   0.0000       0.497670        13.5423 
  42   0.0000       0.573113        15.5952 
  43   0.0000       0.636337        17.3156 
  44   0.0000       0.636337        17.3156 
  45   0.0000       0.683528        18.5997 
  46   0.0000       0.683532        18.5998 
  47   0.0000       0.709741        19.3130 
  48   0.0000       0.709743        19.3131 
  49   0.0000       0.712522        19.3887 
  50   0.0000       0.734423        19.9847 
  51   0.0000       0.755265        20.5518 
  52   0.0000       0.790302        21.5052 
  53   0.0000       0.790307        21.5053 
  54   0.0000       0.873258        23.7625 
  55   0.0000       0.888154        24.1679 
  56   0.0000       0.888158        24.1680 
  57   0.0000       0.942555        25.6482 
  58   0.0000       0.974208        26.5095 
  59   0.0000       0.974210        26.5096 
  60   0.0000       1.069420        29.1004 
  61   0.0000       1.069423        29.1005 
  62   0.0000       1.096873        29.8474 
  63   0.0000       1.159765        31.5588 
  64   0.0000       1.167711        31.7750 
  65   0.0000       1.167711        31.7750 
  66   0.0000       1.230111        33.4730 
  67   0.0000       1.248805        33.9817 
  68   0.0000       1.248820        33.9821 
  69   0.0000       1.312115        35.7045 
  70   0.0000       1.330685        36.2098 
  71   0.0000       1.330694        36.2100 
  72   0.0000       1.446863        39.3711 
  73   0.0000       1.446887        39.3718 
  74   0.0000       1.684458        45.8364 
  75   0.0000       2.126311        57.8599 
  76   0.0000       2.145799        58.3902 
  77   0.0000       2.145812        58.3905 
  78   0.0000       2.190317        59.6016 
  79   0.0000       2.218234        60.3612 
  80   0.0000       2.218235        60.3612 
  81   0.0000       2.240359        60.9633 
  82   0.0000       2.334155        63.5156 
  83   0.0000       2.334164        63.5158 
  84   0.0000       2.337230        63.5993 
  85   0.0000       2.487053        67.6762 
  86   0.0000       2.487072        67.6767 
  87   0.0000       2.615004        71.1579 
  88   0.0000       2.615010        71.1580 
  89   0.0000       2.721770        74.0631 
  90   0.0000       2.845299        77.4245 
  91   0.0000       2.956833        80.4595 
  92   0.0000       2.956844        80.4598 
  93   0.0000       3.160800        86.0097 
  94   0.0000       3.179813        86.5271 
  95   0.0000       3.200635        87.0937 
  96   0.0000       3.200672        87.0947 
  97   0.0000       3.307508        90.0019 
  98   0.0000       3.307536        90.0026 
  99   0.0000       3.376710        91.8849 
 100   0.0000       3.376723        91.8853 
 101   0.0000       3.421845        93.1131 
 102   0.0000       3.594307        97.8061 
 103   0.0000       3.594341        97.8070 
 104   0.0000       3.737356       101.6986 
 105   0.0000       3.889001       105.8251 
 106   0.0000       3.949153       107.4619 
 107   0.0000       3.952868       107.5630 
 108   0.0000       3.952938       107.5649 
 109   0.0000       4.068008       110.6961 
 110   0.0000       4.068025       110.6966 
 111   0.0000       4.172543       113.5407 
 112   0.0000       4.172609       113.5425 
 113   0.0000       4.191235       114.0493 
 114   0.0000       5.300223       144.2264 
 115   0.0000       5.384926       146.5313 
 116   0.0000       5.385008       146.5335 
 117   0.0000       6.906799       187.9436 
 118   0.0000       6.911624       188.0748 
 119   0.0000       6.911634       188.0751 
 120   0.0000       6.913083       188.1146 
 121   0.0000       6.913100       188.1150 
 122   0.0000       6.924463       188.4242 
 123   0.0000       6.925465       188.4515 
 124   0.0000       6.925494       188.4523 
 125   0.0000       6.926022       188.4666 
 126   0.0000       7.071671       192.4300 
 127   0.0000       7.071675       192.4301 
 128   0.0000       7.111035       193.5011 
 129   0.0000       7.237874       196.9526 
 130   0.0000       7.237908       196.9535 
 131   0.0000       7.240512       197.0244 
 132   0.0000       7.469075       203.2439 
 133   0.0000       7.469154       203.2460 
 134   0.0000       7.502743       204.1600 
 135   0.0000       7.658838       208.4076 
 136   0.0000       7.741355       210.6530 
 137   0.0000       7.741411       210.6545 
 138   0.0000       8.503554       231.3935 
 139   0.0000       8.503559       231.3936 
 140   0.0000       8.528279       232.0663 
 141   0.0000       8.581815       233.5231 
 142   0.0000       8.581832       233.5235 
 143   0.0000       8.613151       234.3758 
 144   0.0000       8.821721       240.0512 
 145   0.0000       8.823252       240.0929 
 146   0.0000       8.823274       240.0935 
 147   0.0000       8.921664       242.7708 
 148   0.0000       9.110590       247.9117 
 149   0.0000       9.110656       247.9135 
 150   0.0000       9.223347       250.9800 
 151   0.0000       9.403658       255.8866 
 152   0.0000       9.403674       255.8870 
 153   0.0000      22.780113       619.8784 
 154   0.0000      57.261908      1558.1757 
 155   0.0000      57.284723      1558.7966 
 156   0.0000      57.284732      1558.7968 

                 SPIN DOWN ORBITALS
  NO   OCC          E(Eh)            E(eV) 
   0   1.0000     -24.845285      -676.0746 
   1   1.0000     -24.845282      -676.0745 
   2   1.0000     -24.845268      -676.0741 
   3   1.0000     -10.532621      -286.6072 
   4   1.0000      -1.466708       -39.9111 
   5   1.0000      -1.368901       -37.2497 
   6   1.0000      -1.368896       -37.2496 
   7   1.0000      -0.821006       -22.3407 
   8   1.0000      -0.720239       -19.5987 
   9   1.0000      -0.720235       -19.5986 
  10   1.0000      -0.664490       -18.0817 
  11   1.0000      -0.595922       -16.2159 
  12   1.0000      -0.595919       -16.2158 
  13   1.0000      -0.554703       -15.0942 
  14   1.0000      -0.554690       -15.0939 
  15   1.0000      -0.536235       -14.5917 
  16   0.0000      -0.048404        -1.3171 
  17   0.0000       0.082573         2.2469 
  18   0.0000       0.108083         2.9411 
  19   0.0000       0.108083         2.9411 
  20   0.0000       0.128941         3.5087 
  21   0.0000       0.163382         4.4459 
  22   0.0000       0.163383         4.4459 
  23   0.0000       0.179356         4.8805 
  24   0.0000       0.179356         4.8805 
  25   0.0000       0.196868         5.3571 
  26   0.0000       0.240850         6.5539 
  27   0.0000       0.252681         6.8758 
  28   0.0000       0.252687         6.8760 
  29   0.0000       0.290448         7.9035 
  30   0.0000       0.341983         9.3058 
  31   0.0000       0.377668        10.2769 
  32   0.0000       0.377679        10.2772 
  33   0.0000       0.390806        10.6344 
  34   0.0000       0.390806        10.6344 
  35   0.0000       0.391217        10.6456 
  36   0.0000       0.414140        11.2693 
  37   0.0000       0.414140        11.2693 
  38   0.0000       0.419716        11.4211 
  39   0.0000       0.488466        13.2918 
  40   0.0000       0.488467        13.2919 
  41   0.0000       0.502579        13.6759 
  42   0.0000       0.578004        15.7283 
  43   0.0000       0.638865        17.3844 
  44   0.0000       0.638866        17.3844 
  45   0.0000       0.685270        18.6471 
  46   0.0000       0.685274        18.6473 
  47   0.0000       0.712953        19.4004 
  48   0.0000       0.713053        19.4032 
  49   0.0000       0.713055        19.4032 
  50   0.0000       0.746051        20.3011 
  51   0.0000       0.754509        20.5312 
  52   0.0000       0.791974        21.5507 
  53   0.0000       0.791977        21.5508 
  54   0.0000       0.874951        23.8086 
  55   0.0000       0.891323        24.2541 
  56   0.0000       0.891325        24.2542 
  57   0.0000       0.956052        26.0155 
  58   0.0000       0.982380        26.7319 
  59   0.0000       0.982380        26.7319 
  60   0.0000       1.072724        29.1903 
  61   0.0000       1.072725        29.1903 
  62   0.0000       1.099786        29.9267 
  63   0.0000       1.169112        31.8132 
  64   0.0000       1.169115        31.8132 
  65   0.0000       1.171059        31.8661 
  66   0.0000       1.236764        33.6541 
  67   0.0000       1.259888        34.2833 
  68   0.0000       1.259898        34.2836 
  69   0.0000       1.312403        35.7123 
  70   0.0000       1.337276        36.3891 
  71   0.0000       1.337288        36.3895 
  72   0.0000       1.451277        39.4913 
  73   0.0000       1.451307        39.4921 
  74   0.0000       1.738610        47.3100 
  75   0.0000       2.134668        58.0873 
  76   0.0000       2.153334        58.5952 
  77   0.0000       2.153358        58.5959 
  78   0.0000       2.193198        59.6799 
  79   0.0000       2.226112        60.5756 
  80   0.0000       2.226116        60.5757 
  81   0.0000       2.255341        61.3710 
  82   0.0000       2.338625        63.6372 
  83   0.0000       2.340147        63.6786 
  84   0.0000       2.340157        63.6789 
  85   0.0000       2.497253        67.9537 
  86   0.0000       2.497271        67.9542 
  87   0.0000       2.634058        71.6764 
  88   0.0000       2.634080        71.6770 
  89   0.0000       2.727809        74.2275 
  90   0.0000       2.854752        77.6817 
  91   0.0000       2.961210        80.5786 
  92   0.0000       2.961224        80.5790 
  93   0.0000       3.195350        86.9499 
  94   0.0000       3.213437        87.4421 
  95   0.0000       3.215649        87.5022 
  96   0.0000       3.215691        87.5034 
  97   0.0000       3.334085        90.7251 
  98   0.0000       3.334105        90.7256 
  99   0.0000       3.414145        92.9036 
 100   0.0000       3.414165        92.9042 
 101   0.0000       3.427786        93.2748 
 102   0.0000       3.622568        98.5751 
 103   0.0000       3.622585        98.5756 
 104   0.0000       3.769052       102.5611 
 105   0.0000       3.897601       106.0591 
 106   0.0000       3.960369       107.7671 
 107   0.0000       3.972184       108.0886 
 108   0.0000       3.972254       108.0905 
 109   0.0000       4.080472       111.0353 
 110   0.0000       4.080477       111.0354 
 111   0.0000       4.179549       113.7313 
 112   0.0000       4.179608       113.7329 
 113   0.0000       4.202491       114.3556 
 114   0.0000       5.313204       144.5796 
 115   0.0000       5.395876       146.8292 
 116   0.0000       5.395910       146.8302 
 117   0.0000       6.910168       188.0352 
 118   0.0000       6.915615       188.1835 
 119   0.0000       6.915676       188.1851 
 120   0.0000       6.918616       188.2651 
 121   0.0000       6.918662       188.2664 
 122   0.0000       6.929804       188.5696 
 123   0.0000       6.929829       188.5702 
 124   0.0000       6.929984       188.5744 
 125   0.0000       6.930371       188.5850 
 126   0.0000       7.077815       192.5971 
 127   0.0000       7.077816       192.5972 
 128   0.0000       7.113752       193.5750 
 129   0.0000       7.243616       197.1088 
 130   0.0000       7.243654       197.1098 
 131   0.0000       7.248322       197.2369 
 132   0.0000       7.477112       203.4626 
 133   0.0000       7.477186       203.4646 
 134   0.0000       7.512640       204.4293 
 135   0.0000       7.667344       208.6390 
 136   0.0000       7.748292       210.8417 
 137   0.0000       7.748392       210.8445 
 138   0.0000       8.511777       231.6172 
 139   0.0000       8.511780       231.6173 
 140   0.0000       8.534402       232.2329 
 141   0.0000       8.591768       233.7939 
 142   0.0000       8.591784       233.7943 
 143   0.0000       8.621622       234.6063 
 144   0.0000       8.828692       240.2409 
 145   0.0000       8.832102       240.3337 
 146   0.0000       8.832121       240.3342 
 147   0.0000       8.931965       243.0511 
 148   0.0000       9.115580       248.0475 
 149   0.0000       9.115637       248.0491 
 150   0.0000       9.229900       251.1583 
 151   0.0000       9.410168       256.0637 
 152   0.0000       9.410184       256.0641 
 153   0.0000      22.802982       620.5007 
 154   0.0000      57.264860      1558.2561 
 155   0.0000      57.287649      1558.8762 
 156   0.0000      57.287658      1558.8764 

                    ********************************
                    * MULLIKEN POPULATION ANALYSIS *
                    ********************************

--------------------------------------------
MULLIKEN ATOMIC CHARGES AND SPIN POPULATIONS
--------------------------------------------
   0 C :    0.548471    0.798120
   1 F :   -0.182777    0.067286
   2 F :   -0.182846    0.067296
   3 F :   -0.182848    0.067297
Sum of atomic charges         :   -0.0000000
Sum of atomic spin populations:    1.0000000

-----------------------------------------------------
MULLIKEN REDUCED ORBITAL CHARGES AND SPIN POPULATIONS
-----------------------------------------------------
CHARGE
  0 C s       :     3.189999  s :     3.189999
      pz      :     0.869490  p :     1.916852
      px      :     0.523675
      py      :     0.523687
      dz2     :     0.053785  d :     0.303456
      dxz     :     0.049464
      dyz     :     0.049477
      dx2y2   :     0.075371
      dxy     :     0.075359
      f0      :     0.001780  f :     0.041222
      f+1     :     0.005593
      f-1     :     0.005594
      f+2     :     0.006275
      f-2     :     0.006275
      f+3     :     0.004693
      f-3     :     0.011013
  1 F s       :     3.953879  s :     3.953879
      pz      :     1.793043  p :     5.217923
      px      :     1.503049
      py      :     1.921832
      dz2     :     0.000613  d :     0.010161
      dxz     :     0.005915
      dyz     :     0.000814
      dx2y2   :     0.005010
      dxy     :    -0.002190
      f0      :     0.000082  f :     0.000812
      f+1     :     0.000160
      f-1     :     0.000004
      f+2     :     0.000193
      f-2     :     0.000048
      f+3     :     0.000191
      f-3     :     0.000135
  2 F s       :     3.953936  s :     3.953936
      pz      :     1.793046  p :     5.217941
      px      :     1.817126
      py      :     1.607770
      dz2     :     0.000611  d :     0.010157
      dxz     :     0.002089
      dyz     :     0.004641
      dx2y2   :    -0.000391
      dxy     :     0.003207
      f0      :     0.000082  f :     0.000812
      f+1     :     0.000043
      f-1     :     0.000121
      f+2     :     0.000084
      f-2     :     0.000156
      f+3     :     0.000191
      f-3     :     0.000135
  3 F s       :     3.953936  s :     3.953936
      pz      :     1.793046  p :     5.217942
      px      :     1.817127
      py      :     1.607770
      dz2     :     0.000611  d :     0.010157
      dxz     :     0.002089
      dyz     :     0.004641
      dx2y2   :    -0.000391
      dxy     :     0.003207
      f0      :     0.000082  f :     0.000812
      f+1     :     0.000043
      f-1     :     0.000121
      f+2     :     0.000084
      f-2     :     0.000156
      f+3     :     0.000191
      f-3     :     0.000135

SPIN
  0 C s       :     0.265074  s :     0.265074
      pz      :     0.499231  p :     0.521565
      px      :     0.011157
      py      :     0.011177
      dz2     :     0.017017  d :     0.012249
      dxz     :    -0.001543
      dyz     :    -0.001540
      dx2y2   :    -0.000844
      dxy     :    -0.000841
      f0      :    -0.000168  f :    -0.000767
      f+1     :    -0.000428
      f-1     :    -0.000428
      f+2     :    -0.000152
      f-2     :    -0.000150
      f+3     :     0.000506
      f-3     :     0.000054
  1 F s       :     0.003335  s :     0.003335
      pz      :     0.065618  p :     0.062344
      px      :    -0.002144
      py      :    -0.001130
      dz2     :     0.000155  d :     0.001572
      dxz     :     0.000665
      dyz     :    -0.000007
      dx2y2   :     0.000808
      dxy     :    -0.000050
      f0      :    -0.000003  f :     0.000035
      f+1     :     0.000025
      f-1     :    -0.000000
      f+2     :     0.000002
      f-2     :     0.000002
      f+3     :     0.000009
      f-3     :     0.000001
  2 F s       :     0.003338  s :     0.003338
      pz      :     0.065630  p :     0.062349
      px      :    -0.001386
      py      :    -0.001894
      dz2     :     0.000155  d :     0.001574
      dxz     :     0.000161
      dyz     :     0.000498
      dx2y2   :     0.000165
      dxy     :     0.000595
      f0      :    -0.000003  f :     0.000035
      f+1     :     0.000006
      f-1     :     0.000019
      f+2     :     0.000002
      f-2     :     0.000002
      f+3     :     0.000009
      f-3     :     0.000001
  3 F s       :     0.003338  s :     0.003338
      pz      :     0.065630  p :     0.062350
      px      :    -0.001386
      py      :    -0.001894
      dz2     :     0.000155  d :     0.001574
      dxz     :     0.000161
      dyz     :     0.000498
      dx2y2   :     0.000165
      dxy     :     0.000595
      f0      :    -0.000003  f :     0.000035
      f+1     :     0.000006
      f-1     :     0.000019
      f+2     :     0.000002
      f-2     :     0.000002
      f+3     :     0.000009
      f-3     :     0.000001


                     *******************************
                     * LOEWDIN POPULATION ANALYSIS *
                     *******************************

-------------------------------------------
LOEWDIN ATOMIC CHARGES AND SPIN POPULATIONS
-------------------------------------------
   0 C :   -0.387279    0.618385
   1 F :    0.129089    0.127217
   2 F :    0.129095    0.127199
   3 F :    0.129095    0.127199

----------------------------------------------------
LOEWDIN REDUCED ORBITAL CHARGES AND SPIN POPULATIONS
----------------------------------------------------
CHARGE
  0 C s       :     2.692826  s :     2.692826
      pz      :     0.808863  p :     2.189863
      px      :     0.690497
      py      :     0.690503
      dz2     :     0.174451  d :     1.236513
      dxz     :     0.202405
      dyz     :     0.202410
      dx2y2   :     0.328624
      dxy     :     0.328624
      f0      :     0.015171  f :     0.268076
      f+1     :     0.027472
      f-1     :     0.027473
      f+2     :     0.046570
      f-2     :     0.046570
      f+3     :     0.043766
      f-3     :     0.061054
  1 F s       :     3.560274  s :     3.560274
      pz      :     1.717626  p :     5.097327
      px      :     1.594290
      py      :     1.785411
      dz2     :     0.033027  d :     0.211369
      dxz     :     0.063484
      dyz     :     0.007067
      dx2y2   :     0.043763
      dxy     :     0.064027
      f0      :     0.000180  f :     0.001941
      f+1     :     0.000437
      f-1     :     0.000011
      f+2     :     0.000469
      f-2     :     0.000100
      f+3     :     0.000381
      f-3     :     0.000363
  2 F s       :     3.560273  s :     3.560273
      pz      :     1.717618  p :     5.097326
      px      :     1.737627
      py      :     1.642081
      dz2     :     0.033027  d :     0.211365
      dxz     :     0.021171
      dyz     :     0.049380
      dx2y2   :     0.058959
      dxy     :     0.048829
      f0      :     0.000180  f :     0.001941
      f+1     :     0.000118
      f-1     :     0.000330
      f+2     :     0.000192
      f-2     :     0.000376
      f+3     :     0.000382
      f-3     :     0.000363
  3 F s       :     3.560273  s :     3.560273
      pz      :     1.717618  p :     5.097326
      px      :     1.737627
      py      :     1.642081
      dz2     :     0.033027  d :     0.211365
      dxz     :     0.021171
      dyz     :     0.049380
      dx2y2   :     0.058959
      dxy     :     0.048829
      f0      :     0.000180  f :     0.001941
      f+1     :     0.000118
      f-1     :     0.000330
      f+2     :     0.000192
      f-2     :     0.000376
      f+3     :     0.000382
      f-3     :     0.000363

SPIN
  0 C s       :     0.141914  s :     0.141914
      pz      :     0.407823  p :     0.418819
      px      :     0.005485
      py      :     0.005511
      dz2     :     0.058432  d :     0.049663
      dxz     :    -0.003759
      dyz     :    -0.003758
      dx2y2   :    -0.000625
      dxy     :    -0.000626
      f0      :     0.000059  f :     0.007989
      f+1     :    -0.000225
      f-1     :    -0.000225
      f+2     :    -0.000201
      f-2     :    -0.000200
      f+3     :     0.008777
      f-3     :     0.000003
  1 F s       :     0.015204  s :     0.015204
      pz      :     0.073444  p :     0.079001
      px      :     0.006248
      py      :    -0.000691
      dz2     :     0.007345  d :     0.032647
      dxz     :     0.024187
      dyz     :    -0.000137
      dx2y2   :     0.001238
      dxy     :     0.000015
      f0      :     0.000008  f :     0.000365
      f+1     :     0.000238
      f-1     :     0.000000
      f+2     :     0.000096
      f-2     :     0.000001
      f+3     :     0.000018
      f-3     :     0.000003
  2 F s       :     0.015203  s :     0.015203
      pz      :     0.073447  p :     0.078984
      px      :     0.001038
      py      :     0.004499
      dz2     :     0.007345  d :     0.032646
      dxz     :     0.005943
      dyz     :     0.018105
      dx2y2   :     0.000320
      dxy     :     0.000932
      f0      :     0.000008  f :     0.000365
      f+1     :     0.000060
      f-1     :     0.000179
      f+2     :     0.000025
      f-2     :     0.000073
      f+3     :     0.000018
      f-3     :     0.000003
  3 F s       :     0.015203  s :     0.015203
      pz      :     0.073447  p :     0.078984
      px      :     0.001038
      py      :     0.004499
      dz2     :     0.007345  d :     0.032646
      dxz     :     0.005943
      dyz     :     0.018105
      dx2y2   :     0.000320
      dxy     :     0.000932
      f0      :     0.000008  f :     0.000365
      f+1     :     0.000060
      f-1     :     0.000179
      f+2     :     0.000025
      f-2     :     0.000073
      f+3     :     0.000018
      f-3     :     0.000003


                      *****************************
                      * MAYER POPULATION ANALYSIS *
                      *****************************

  NA   - Mulliken gross atomic population
  ZA   - Total nuclear charge
  QA   - Mulliken gross atomic charge
  VA   - Mayer's total valence
  BVA  - Mayer's bonded valence
  FA   - Mayer's free valence

  ATOM       NA         ZA         QA         VA         BVA        FA
  0 C      5.4515     6.0000     0.5485     3.8023     3.1610     0.6412
  1 F      9.1828     9.0000    -0.1828     1.0643     1.0605     0.0037
  2 F      9.1828     9.0000    -0.1828     1.0642     1.0604     0.0037
  3 F      9.1828     9.0000    -0.1828     1.0642     1.0604     0.0037

  Mayer bond orders larger than 0.100000
B(  0-C ,  1-F ) :   1.0537 B(  0-C ,  2-F ) :   1.0537 B(  0-C ,  3-F ) :   1.0537 


-------
TIMINGS
-------

Total SCF time: 0 days 0 hours 0 min 13 sec 

Total time                  ....      13.745 sec
Sum of individual times     ....      12.599 sec  ( 91.7%)

Fock matrix formation       ....      10.418 sec  ( 75.8%)
  Split-RI-J                ....       3.079 sec  ( 29.6% of F)
  Chain of spheres X        ....       2.747 sec  ( 26.4% of F)
  XC integration            ....       1.750 sec  ( 16.8% of F)
    Basis function eval.    ....       0.101 sec  (  5.8% of XC)
    Density eval.           ....       0.136 sec  (  7.7% of XC)
    XC-Functional eval.     ....       0.057 sec  (  3.3% of XC)
    XC-Potential eval.      ....       0.273 sec  ( 15.6% of XC)
Diagonalization             ....       0.325 sec  (  2.4%)
Density matrix formation    ....       0.021 sec  (  0.1%)
Population analysis         ....       0.140 sec  (  1.0%)
Initial guess               ....       0.704 sec  (  5.1%)
Orbital Transformation      ....       0.000 sec  (  0.0%)
Orbital Orthonormalization  ....       0.000 sec  (  0.0%)
DIIS solution               ....       0.408 sec  (  3.0%)
Grid generation             ....       0.583 sec  (  4.2%)

Maximum memory used throughout the entire SCF-calculation: 63.2 MB


-------------------------------------------------------------------------------
                          DFT DISPERSION CORRECTION                            
                                                                               
                              DFTD3 V3.1  Rev 1                                
                              USING zero damping                               
-------------------------------------------------------------------------------
The omegaB97X-D3 functional is recognized. Fit by Chai et al.
Active option DFTDOPT                   ...         3   

molecular C6(AA) [au] = 165.687201 


            DFT-D V3
 parameters
 s6 scaling factor         :     1.0000 
 rs6 scaling factor        :     1.2810 
 s8 scaling factor         :     1.0000 
 rs8 scaling factor        :     1.0940 
 Damping factor alpha6     :    14.0000 
 Damping factor alpha8     :    16.0000 
 ad hoc parameters k1-k3   :    16.0000     1.3333    -4.0000 

 Edisp/kcal,au: -0.042187548132  -0.000067230130 
 E6   /kcal   :  -0.005375088 
 E8   /kcal   :  -0.036812460 
 % E8         :  87.259065872 

-------------------------   ----------------
Dispersion correction           -0.000067230
-------------------------   ----------------


-------------------------   --------------------
FINAL SINGLE POINT ENERGY      -337.626976830535
-------------------------   --------------------



           ************************************************************
           *        Program running with 18 parallel MPI-processes    *
           *              working on a common directory               *
           ************************************************************
------------------------------------------------------------------------------
                         ORCA SCF GRADIENT CALCULATION
------------------------------------------------------------------------------

 ... reading COSX grid (gridx3)
Gradient of the Kohn-Sham DFT energy:
Kohn-Sham wavefunction type      ... UKS
Hartree-Fock exchange scaling    ...    0.196
Number of operators              ...    2
Number of atoms                  ...    4
Basis set dimensions             ...  157
Integral neglect threshold       ... 2.5e-11
Integral primitive cutoff        ... 2.5e-12
SHARK Integral package           ... ON

Nuc. rep. gradient       (SHARK) ... done (  0.0 sec)
HCore & Overlap gradient (SHARK) ... done (  0.0 sec)
RI-J gradient            (SHARK) ... done (  1.3 sec)
COSX-gradient                    ... done (  0.5 sec)
Exchange-correlation gradient    ... done
Dispersion correction            ... done

------------------
CARTESIAN GRADIENT
------------------

WARNING: THERE ARE 3 CONSTRAINED CARTESIAN COORDINATES
   1   C   :    0.000071696    0.000000029    0.047871262
   2   F   :   -0.016688149    0.000000069   -0.015805770
   3   F   :    0.008633865   -0.014463272   -0.016100655
   4   F   :    0.008633865    0.014463248   -0.016100495

Difference to translation invariance:
           :    0.0006512765    0.0000000751   -0.0001356585

Difference to rotation invariance:
           :   -0.0000002763   -0.0012158385    0.0000001856

Norm of the cartesian gradient     ...    0.0624971643
RMS gradient                       ...    0.0180413773
MAX gradient                       ...    0.0478712616

-------
TIMINGS
-------

Total SCF gradient time            ...        2.314 sec

One electron gradient       ....       0.011 sec  (  0.5%)
RI-J Coulomb gradient       ....       1.289 sec  ( 55.7%)
COSX gradient               ....       0.454 sec  ( 19.6%)
XC gradient                 ....       0.157 sec  (  6.8%)

Maximum memory used throughout the entire SCFGRAD-calculation: 37.2 MB
------------------------------------------------------------------------------
                         ORCA GEOMETRY RELAXATION STEP
------------------------------------------------------------------------------

Reading the OPT-File                    .... done
Getting information on internals        .... done
Copying old internal coords+grads       .... done
Making the new internal coordinates     .... (new redundants).... done
Validating the new internal coordinates .... (new redundants).... done
Calculating the B-matrix                .... done
Calculating the G,G- and P matrices     .... done
Transforming gradient to internals      .... done
Projecting the internal gradient        .... done
Number of atoms                         ....   4
Number of internal coordinates          ....   7
Current Energy                          ....  -337.626976831 Eh
Current gradient norm                   ....     0.062497164 Eh/bohr
Maximum allowed component of the step   ....  0.300
Current trust radius                    ....  0.300
Evaluating the initial hessian          ....  (Almloef) done
Projecting the Hessian                  .... done
Forming the augmented Hessian           .... done
Diagonalizing the augmented Hessian     .... done
Last element of RFO vector              ....  0.999703024
Lowest eigenvalues of augmented Hessian:
 -0.000407218  0.684895726  0.684895726  0.685302943 1000.000000000
Length of the computed step             ....  0.024376543
The final length of the internal step   ....  0.024376543
Converting the step to cartesian space:
 Initial RMS(Int)=    0.0092134671
Transforming coordinates:
 Iter   0:  RMS(Cart)=    0.0066616004 RMS(Int)=    0.0092134672
 Iter   1:  RMS(Cart)=    0.0000000002 RMS(Int)=    0.0000000004
Imposing constraints:
 Iter   0:  RMS(Cart)=    0.0000000001 RMS(Int)=    0.0000000002
CONVERGED
done
Storing new coordinates                 .... done

                                .--------------------.
          ----------------------|Geometry convergence|-------------------------
          Item                value                   Tolerance       Converged
          ---------------------------------------------------------------------
          RMS gradient        0.0063140161            0.0001000000      NO
          MAX gradient        0.0097163820            0.0003000000      NO
          RMS step            0.0092134671            0.0020000000      NO
          MAX step            0.0141782289            0.0040000000      NO
          ........................................................
          Max(Bonds)      0.0075      Max(Angles)    0.00
          Max(Dihed)        0.00      Max(Improp)    0.00
          ---------------------------------------------------------------------

The optimization has not yet converged - more geometry cycles are needed


    ---------------------------------------------------------------------------
                         Redundant Internal Coordinates
                            (Angstroem and degrees)

        Definition                    Value    dE/dq     Step     New-Value
    ----------------------------------------------------------------------------
     1. B(F   1,C   0)                1.3150 -0.009716  0.0075    1.3225   
     2. B(F   2,C   0)                1.3150 -0.009609  0.0074    1.3224   
     3. B(F   3,C   0)                1.3150 -0.009609  0.0074    1.3224   
     4. A(F   2,C   0,F   3)          107.00 -0.033737    0.00    107.00 C 
     5. A(F   1,C   0,F   2)          107.00 -0.013512   -0.00    107.00 C 
     6. A(F   1,C   0,F   3)          107.00 -0.013512    0.00    107.00 C 
     7. I(F   1,F   3,F   2,C   0)     60.56  0.037811   -0.00     60.56   
    ----------------------------------------------------------------------------

         *************************************************************
         *                GEOMETRY OPTIMIZATION CYCLE   2            *
         *************************************************************
---------------------------------
CARTESIAN COORDINATES (ANGSTROEM)
---------------------------------
  C     -0.000024   -0.000000    0.002078
  F      1.227548   -0.000000   -0.489941
  F     -0.613762    1.063036   -0.489931
  F     -0.613762   -1.063036   -0.489931

----------------------------
CARTESIAN COORDINATES (A.U.)
----------------------------
  NO LB      ZA    FRAG     MASS         X           Y           Z
   0 C     6.0000    0    12.011   -0.000045   -0.000000    0.003927
   1 F     9.0000    0    18.998    2.319729   -0.000000   -0.925854
   2 F     9.0000    0    18.998   -1.159842    2.008847   -0.925836
   3 F     9.0000    0    18.998   -1.159842   -2.008847   -0.925836

--------------------------------
INTERNAL COORDINATES (ANGSTROEM)
--------------------------------
 C      0   0   0     0.000000000000     0.00000000     0.00000000
 F      1   0   0     1.322502795600     0.00000000     0.00000000
 F      1   2   0     1.322419764292   107.00000000     0.00000000
 F      1   2   3     1.322419739708   107.00000000   114.40420742

---------------------------
INTERNAL COORDINATES (A.U.)
---------------------------
 C      0   0   0     0.000000000000     0.00000000     0.00000000
 F      1   0   0     2.499168095029     0.00000000     0.00000000
 F      1   2   0     2.499011188596   107.00000000     0.00000000
 F      1   2   3     2.499011142140   107.00000000   114.40420742



           ************************************************************
           *        Program running with 18 parallel MPI-processes    *
           *              working on a common directory               *
           ************************************************************
------------------------------------------------------------------------------
                   ___                                                        
                  /   \      - P O W E R E D   B Y -                         
                 /     \                                                     
                 |  |  |   _    _      __       _____    __    __             
                 |  |  |  | |  | |    /  \     |  _  \  |  |  /  |          
                  \  \/   | |  | |   /    \    | | | |  |  | /  /          
                 / \  \   | |__| |  /  /\  \   | |_| |  |  |/  /          
                |  |  |   |  __  | /  /__\  \  |    /   |      \           
                |  |  |   | |  | | |   __   |  |    \   |  |\   \          
                \     /   | |  | | |  |  |  |  | |\  \  |  | \   \       
                 \___/    |_|  |_| |__|  |__|  |_| \__\ |__|  \__/        
                                                                              
                      - O R C A' S   B I G   F R I E N D -                    
                                      &                                       
                       - I N T E G R A L  F E E D E R -                       
                                                                              
 v1 FN, 2020, v2 2021                                                         
------------------------------------------------------------------------------


Reading SHARK input file /beegfs/scratch/ispackman/PFAS_EPR_calcs/benchmark/JChemEd_CF3_radical/CF3_radical_107.0_degrees_IN-PROGRESS/CF3_radical_107.0_degrees.SHARKINP.tmp ... ok
----------------------
SHARK INTEGRAL PACKAGE
----------------------

Number of atoms                             ...      4
Number of basis functions                   ...    157
Number of shells                            ...     55
Maximum angular momentum                    ...      3
Integral batch strategy                     ... SHARK/LIBINT Hybrid
RI-J (if used) integral strategy            ... SPLIT-RIJ (Revised 2003 algorithm where possible)
Printlevel                                  ...      1
Contraction scheme used                     ... SEGMENTED contraction
Coulomb Range Separation                    ... NOT USED
Exchange Range Separation                   ... Long Range
   Mu parameter                             ...  0.250000
   Scaling (regular/separated)              ...  0.195728  0.804272
Finite Nucleus Model                        ... NOT USED
Auxiliary Coulomb fitting basis             ... AVAILABLE
   # of basis functions in Aux-J            ...    196
   # of shells in Aux-J                     ...     60
   Maximum angular momentum in Aux-J        ...      4
Auxiliary J/K fitting basis                 ... NOT available
Auxiliary Correlation fitting basis         ... NOT available
Auxiliary 'external' fitting basis          ... NOT available
Integral threshold                          ...     2.500000e-11
Primitive cut-off                           ...     2.500000e-12
Primitive pair pre-selection threshold      ...     2.500000e-12

Calculating pre-screening integrals         ... done (  0.0 sec) Dimension = 55
Organizing shell pair data                  ... done (  0.0 sec)
Shell pair information
Total number of shell pairs                 ...      1540
Shell pairs after pre-screening             ...      1504
Total number of primitive shell pairs       ...      4274
Primitive shell pairs kept                  ...      3545
          la=0 lb=0:    282 shell pairs
          la=1 lb=0:    354 shell pairs
          la=1 lb=1:    120 shell pairs
          la=2 lb=0:    276 shell pairs
          la=2 lb=1:    180 shell pairs
          la=2 lb=2:     78 shell pairs
          la=3 lb=0:     96 shell pairs
          la=3 lb=1:     60 shell pairs
          la=3 lb=2:     48 shell pairs
          la=3 lb=3:     10 shell pairs

Calculating one electron integrals          ... done (  0.0 sec)
Calculating RI/J V-Matrix + Cholesky decomp.... done (  0.0 sec)
Calculating Nuclear repulsion               ... done (  0.0 sec) ENN=    125.305465594263 Eh

SHARK setup successfully completed in   0.3 seconds

Maximum memory used throughout the entire GTOINT-calculation: 15.2 MB


           ************************************************************
           *        Program running with 18 parallel MPI-processes    *
           *              working on a common directory               *
           ************************************************************

Diagonalization of the overlap matrix:
Smallest eigenvalue                        ... 3.458e-04
Time for diagonalization                   ...    0.007 sec
Threshold for overlap eigenvalues          ... 1.000e-08
Number of eigenvalues below threshold      ... 0
Time for construction of square roots      ...    0.024 sec
Total time needed                          ...    0.032 sec

-------------------
DFT GRID GENERATION
-------------------

General Integration Accuracy     IntAcc      ... 4.388
Radial Grid Type                 RadialGrid  ... OptM3 with GC (2021)
Angular Grid (max. ang.)         AngularGrid ... 4 (Lebedev-302)
Angular grid pruning method      GridPruning ... 4 (adaptive)
Weight generation scheme         WeightScheme... Becke
Basis function cutoff            BFCut       ... 1.0000e-11
Integration weight cutoff        WCut        ... 1.0000e-14
Angular grids for H and He will be reduced by one unit
Partially contracted basis set               ... off
Rotationally invariant grid construction     ... off

Total number of grid points                  ...    25785
Total number of batches                      ...      404
Average number of points per batch           ...       63
Average number of grid points per atom       ...     6446
Time for grid setup =    0.158 sec

--------------------
COSX GRID GENERATION
--------------------

GRIDX 1
-------
General Integration Accuracy     IntAcc      ... 3.816
Radial Grid Type                 RadialGrid  ... OptM3 with GC (2021)
Angular Grid (max. ang.)         AngularGrid ... 1 (Lebedev-50)
Angular grid pruning method      GridPruning ... 4 (adaptive)
Weight generation scheme         WeightScheme... Becke
Basis function cutoff            BFCut       ... 1.0000e-11
Integration weight cutoff        WCut        ... 1.0000e-14
Angular grids for H and He will be reduced by one unit
Partially contracted basis set               ... on
Rotationally invariant grid construction     ... off

Total number of grid points                  ...     3270
Total number of batches                      ...       53
Average number of points per batch           ...       61
Average number of grid points per atom       ...      818
UseSFitting                                  ... on

GRIDX 2
-------
General Integration Accuracy     IntAcc      ... 4.020
Radial Grid Type                 RadialGrid  ... OptM3 with GC (2021)
Angular Grid (max. ang.)         AngularGrid ... 2 (Lebedev-110)
Angular grid pruning method      GridPruning ... 4 (adaptive)
Weight generation scheme         WeightScheme... Becke
Basis function cutoff            BFCut       ... 1.0000e-11
Integration weight cutoff        WCut        ... 1.0000e-14
Angular grids for H and He will be reduced by one unit
Partially contracted basis set               ... on
Rotationally invariant grid construction     ... off

Total number of grid points                  ...     9116
Total number of batches                      ...      144
Average number of points per batch           ...       63
Average number of grid points per atom       ...     2279
UseSFitting                                  ... on

GRIDX 3
-------
General Integration Accuracy     IntAcc      ... 4.338
Radial Grid Type                 RadialGrid  ... OptM3 with GC (2021)
Angular Grid (max. ang.)         AngularGrid ... 3 (Lebedev-194)
Angular grid pruning method      GridPruning ... 4 (adaptive)
Weight generation scheme         WeightScheme... Becke
Basis function cutoff            BFCut       ... 1.0000e-11
Integration weight cutoff        WCut        ... 1.0000e-14
Angular grids for H and He will be reduced by one unit
Partially contracted basis set               ... on
Rotationally invariant grid construction     ... off

Total number of grid points                  ...    19668
Total number of batches                      ...      309
Average number of points per batch           ...       63
Average number of grid points per atom       ...     4917
UseSFitting                                  ... on

Time for X-Grid setup             =    0.462 sec

--------------
SCF ITERATIONS
--------------
[...]
  VA   - Mayer's total valence
  BVA  - Mayer's bonded valence
  FA   - Mayer's free valence

  ATOM       NA         ZA         QA         VA         BVA        FA
  0 C      5.4589     6.0000     0.5411     3.8002     3.1609     0.6393
  1 F      9.1804     9.0000    -0.1804     1.0665     1.0626     0.0039
  2 F      9.1804     9.0000    -0.1804     1.0665     1.0626     0.0039
  3 F      9.1804     9.0000    -0.1804     1.0665     1.0626     0.0039

  Mayer bond orders larger than 0.100000
B(  0-C ,  1-F ) :   1.0536 B(  0-C ,  2-F ) :   1.0536 B(  0-C ,  3-F ) :   1.0536 


-------
TIMINGS
-------

Total SCF time: 0 days 0 hours 0 min 5 sec 

Total time                  ....       5.691 sec
Sum of individual times     ....       4.878 sec  ( 85.7%)

Fock matrix formation       ....       3.900 sec  ( 68.5%)
  Split-RI-J                ....       0.567 sec  ( 14.5% of F)
  Chain of spheres X        ....       1.559 sec  ( 40.0% of F)
  XC integration            ....       0.712 sec  ( 18.3% of F)
    Basis function eval.    ....       0.045 sec  (  6.4% of XC)
    Density eval.           ....       0.058 sec  (  8.1% of XC)
    XC-Functional eval.     ....       0.024 sec  (  3.4% of XC)
    XC-Potential eval.      ....       0.085 sec  ( 11.9% of XC)
Diagonalization             ....       0.123 sec  (  2.2%)
Density matrix formation    ....       0.008 sec  (  0.1%)
Population analysis         ....       0.229 sec  (  4.0%)
Initial guess               ....       0.023 sec  (  0.4%)
Orbital Transformation      ....       0.000 sec  (  0.0%)
Orbital Orthonormalization  ....       0.012 sec  (  0.2%)
DIIS solution               ....       0.086 sec  (  1.5%)
Grid generation             ....       0.510 sec  (  9.0%)

Maximum memory used throughout the entire SCF-calculation: 63.2 MB


-------------------------------------------------------------------------------
                          DFT DISPERSION CORRECTION                            
                                                                               
                              DFTD3 V3.1  Rev 1                                
                              USING zero damping                               
-------------------------------------------------------------------------------
The omegaB97X-D3 functional is recognized. Fit by Chai et al.
Active option DFTDOPT                   ...         3   

molecular C6(AA) [au] = 165.709507 


            DFT-D V3
 parameters
 s6 scaling factor         :     1.0000 
 rs6 scaling factor        :     1.2810 
 s8 scaling factor         :     1.0000 
 rs8 scaling factor        :     1.0940 
 Damping factor alpha6     :    14.0000 
 Damping factor alpha8     :    16.0000 
 ad hoc parameters k1-k3   :    16.0000     1.3333    -4.0000 

 Edisp/kcal,au: -0.044508972787  -0.000070929555 
 E6   /kcal   :  -0.005675794 
 E8   /kcal   :  -0.038833179 
 % E8         :  87.247978031 

-------------------------   ----------------
Dispersion correction           -0.000070930
-------------------------   ----------------


-------------------------   --------------------
FINAL SINGLE POINT ENERGY      -337.627223953003
-------------------------   --------------------

                                *** OPTIMIZATION RUN DONE ***

                            ***************************************
                            *     ORCA property calculations      *
                            ***************************************

                                    ---------------------
                                    Active property flags
                                    ---------------------
   (+) Dipole Moment


------------------------------------------------------------------------------
                       ORCA ELECTRIC PROPERTIES CALCULATION
------------------------------------------------------------------------------

Dipole Moment Calculation                       ... on
Quadrupole Moment Calculation                   ... off
Polarizability Calculation                      ... off
GBWName                                         ... /beegfs/scratch/ispackman/PFAS_EPR_calcs/benchmark/JChemEd_CF3_radical/CF3_radical_107.0_degrees_IN-PROGRESS/CF3_radical_107.0_degrees.gbw
Electron density                                ... /beegfs/scratch/ispackman/PFAS_EPR_calcs/benchmark/JChemEd_CF3_radical/CF3_radical_107.0_degrees_IN-PROGRESS/CF3_radical_107.0_degrees.scfp
The origin for moment calculation is the CENTER OF MASS  = ( 0.000008, -0.000000 -0.764088)

-------------
DIPOLE MOMENT
-------------
                                X             Y             Z
Electronic contribution:     -0.00029      -0.00000      -0.00648
Nuclear contribution   :     -0.00003       0.00000       0.23832
                        -----------------------------------------
Total Dipole Moment    :     -0.00032      -0.00000       0.23184
                        -----------------------------------------
Magnitude (a.u.)       :      0.23184
Magnitude (Debye)      :      0.58929



--------------------
Rotational spectrum 
--------------------
 
Rotational constants in cm-1:     0.370969     0.370917     0.195844 
Rotational constants in MHz : 11121.358820 11119.822625  5871.270391 

 Dipole components along the rotational axes: 
x,y,z [a.u.] :     0.000322    -0.000000     0.231838 
x,y,z [Debye]:     0.000819    -0.000000     0.589286 

 


           ************************************************************
           *        Program running with 18 parallel MPI-processes    *
           *              working on a common directory               *
           ************************************************************

-------------------------------------------------------------------------------
                               ORCA SCF HESSIAN
-------------------------------------------------------------------------------

                   --------- SHARK INITIALIZATION DONE ---------

Hessian of the Kohn-Sham DFT energy:
Kohn-Sham wavefunction type                      ... UKS
Hartree-Fock exchange scaling                    ...    0.196
Number of operators                              ...    2
Number of atoms                                  ...    4
Basis set dimensions                             ...  157
Integral neglect threshold                       ... 2.5e-11
Integral primitive cutoff                        ... 2.5e-12

Setting up DFT Hessian calculations              ... 

HESS GRID
---------

General Integration Accuracy     IntAcc      ... 4.629
Radial Grid Type                 RadialGrid  ... OptM3 with GC (2021)
Angular Grid (max. ang.)         AngularGrid ... 5 (Lebedev-434)
Angular grid pruning method      GridPruning ... 4 (adaptive)
Weight generation scheme         WeightScheme... Becke
Basis function cutoff            BFCut       ... 1.0000e-11
Integration weight cutoff        WCut        ... 1.0000e-14
Angular grids for H and He will be reduced by one unit
Partially contracted basis set               ... off
Rotationally invariant grid construction     ... off

Total number of grid points                  ...    39964
Total number of batches                      ...      627
Average number of points per batch           ...       63
Average number of grid points per atom       ...     9991

Building densities                               ... done   (      0.0 sec)
Calculating rho(r) on the grid                   ... done   (      0.1 sec)
Building xc-kernel on the grid                   ... done   (      0.1 sec)
                                                     done   (      0.6 sec)

Nuclear repulsion Hessian  (SHARK)               ... done   (      0.0 sec)

----------------------------------------------
Forming right-hand sides of CP-SCF equations     ...
----------------------------------------------
One electron integral derivatives  (SHARK)       ... done   (      0.0 sec)
Transforming the overlap derivative matrices     ... done   (      0.0 sec)
Making the Q(x) pseudodensities                  ... done   (      0.0 sec)
Adding the E*S(x)*S(y) terms to the Hessian      ... done   (      0.0 sec)
Calculating energy weighted overlap derivatives  ... done   (      0.0 sec)
Two electron integral derivatives (SHARK-RI)     ... done   (      2.5 sec)
Exchange-correlation integral derivatives        ... done   (      2.3 sec)
tr(F(y)Q(x)) contribution to the Hessian         ... done   (      0.0 sec)
Response fock operator R(S(x)) (SHARK-RIJCOSX)   ... done   (      1.0 sec)
XC Response fock operator R(S(x))                ... done   (      0.4 sec)
tr(F(y)S(x)) contribution to the Hessian         ... done   (      0.0 sec)
Transforming and finalizing RHSs                 ... done   (      0.0 sec)

----------------------------------------------
Solving the CP-SCF equations (RIJCOSX)           ...
----------------------------------------------
     CP-SCF ITERATION   0:   1.5991e-01 (   0.4 sec   0/ 12 done)
     CP-SCF ITERATION   1:   4.4152e-02 (   0.5 sec   0/ 12 done)
     CP-SCF ITERATION   2:   1.4138e-02 (   0.5 sec   0/ 12 done)
     CP-SCF ITERATION   3:   3.8705e-03 (   0.5 sec   0/ 12 done)
     CP-SCF ITERATION   4:   1.2783e-03 (   0.5 sec   0/ 12 done)
     CP-SCF ITERATION   5:   5.3808e-04 (   0.5 sec   1/ 12 done)
     CP-SCF ITERATION   6:   1.4870e-04 (   0.5 sec   9/ 12 done)
     CP-SCF ITERATION   7:   3.1870e-05 (   0.4 sec  12/ 12 done)
                    *** THE CP-SCF HAS CONVERGED ***

                                                 ... done   (      3.9 sec)
Forming perturbed density Hessian contributions  ... done   (      0.0 sec)
2nd integral derivative contribs (SHARK-RI)      ... done   (      7.2 sec)
Exchange-correlation Hessian                     ... done   (      0.9 sec)
Dispersion correction in the Hessian             ... done   (      0.1 sec)
Dipole derivatives                               ... (center of mass:  0.000008, -0.000000 -0.764088)done   (      0.2 sec)

Total SCF Hessian time: 0 days 0 hours 0 min 19 sec 

Writing the Hessian file to the disk             ... done


Maximum memory used throughout the entire SCFHESS-calculation: 144.6 MB

-----------------------
VIBRATIONAL FREQUENCIES
-----------------------

Scaling factor for frequencies =  1.000000000  (already applied!)

   0:         0.00 cm**-1
   1:         0.00 cm**-1
   2:         0.00 cm**-1
   3:         0.00 cm**-1
   4:         0.00 cm**-1
   5:         0.00 cm**-1
   6:       538.56 cm**-1
   7:       538.86 cm**-1
   8:       737.76 cm**-1
   9:      1118.87 cm**-1
  10:      1200.73 cm**-1
  11:      1201.54 cm**-1


------------
NORMAL MODES
------------

These modes are the Cartesian displacements weighted by the diagonal matrix
M(i,i)=1/sqrt(m[i]) where m[i] is the mass of the displaced atom
Thus, these vectors are normalized but *not* orthogonal

                  0          1          2          3          4          5    
      0       0.000000   0.000000   0.000000   0.000000   0.000000   0.000000
      1       0.000000   0.000000   0.000000   0.000000   0.000000   0.000000
      2       0.000000   0.000000   0.000000   0.000000   0.000000   0.000000
      3       0.000000   0.000000   0.000000   0.000000   0.000000   0.000000
      4       0.000000   0.000000   0.000000   0.000000   0.000000   0.000000
      5       0.000000   0.000000   0.000000   0.000000   0.000000   0.000000
      6       0.000000   0.000000   0.000000   0.000000   0.000000   0.000000
      7       0.000000   0.000000   0.000000   0.000000   0.000000   0.000000
      8       0.000000   0.000000   0.000000   0.000000   0.000000   0.000000
      9       0.000000   0.000000   0.000000   0.000000   0.000000   0.000000
     10       0.000000   0.000000   0.000000   0.000000   0.000000   0.000000
     11       0.000000   0.000000   0.000000   0.000000   0.000000   0.000000
                  6          7          8          9         10         11    
      0       0.000006  -0.317657   0.000344   0.003012   0.894122   0.000025
      1      -0.317750  -0.000005   0.000000  -0.000003   0.000025  -0.894106
      2      -0.000000   0.001041   0.585251  -0.827247   0.002712   0.000003
      3       0.000008  -0.475834  -0.450808  -0.274668  -0.328799  -0.000008
      4       0.608930   0.000010   0.000000   0.000000  -0.000001   0.047193
      5       0.000001  -0.053877  -0.123264   0.174831   0.150476   0.000004
      6       0.469391   0.338340   0.225296   0.136382  -0.118240  -0.122308
      7      -0.204028   0.468729  -0.391855  -0.236464   0.122962   0.259045
      8      -0.046495   0.026609  -0.123373   0.174087  -0.076092  -0.130819
      9      -0.469403   0.338324   0.225295   0.136382  -0.118247   0.122301
     10      -0.204013  -0.468736   0.391855   0.236465  -0.122976   0.259037
     11       0.046494   0.026610  -0.123373   0.174088  -0.076099   0.130814


-----------
IR SPECTRUM
-----------

 Mode   freq       eps      Int      T**2         TX        TY        TZ
       cm**-1   L/(mol*cm) km/mol    a.u.
----------------------------------------------------------------------------
  6:    538.56   0.000296    1.50  0.000171  ( 0.000000 -0.013094 -0.000000)
  7:    538.86   0.000295    1.49  0.000171  (-0.013070 -0.000000  0.000063)
  8:    737.76   0.002382   12.04  0.001007  (-0.000008  0.000000  0.031739)
  9:   1118.87   0.008952   45.24  0.002497  ( 0.000449 -0.000000 -0.049967)
 10:   1200.73   0.068316  345.24  0.017755  ( 0.133248  0.000004  0.000202)
 11:   1201.54   0.068251  344.91  0.017726  ( 0.000004 -0.133139  0.000000)

* The epsilon (eps) is given for a Dirac delta lineshape.
** The dipole moment derivative (T) already includes vibrational overlap.

The first frequency considered to be a vibration is 6
The total number of vibrations considered is 6


--------------------------
THERMOCHEMISTRY AT 298.15K
--------------------------

Temperature         ... 298.15 K
Pressure            ... 1.00 atm
Total Mass          ... 69.00 AMU

Throughout the following assumptions are being made:
  (1) The electronic state is orbitally nondegenerate
      but the spin degeneracy is treated
  (2) There are no thermally accessible electronically excited states
  (3) Hindered rotations indicated by low frequency modes are not
      treated as such but are treated as vibrations and this may
      cause some error
  (4) All equations used are the standard statistical mechanics
      equations for an ideal gas
  (5) All vibrations are strictly harmonic

freq.     538.56  E(vib)   ...       0.12 
freq.     538.86  E(vib)   ...       0.12 
freq.     737.76  E(vib)   ...       0.06 
freq.    1118.87  E(vib)   ...       0.01 
freq.    1200.73  E(vib)   ...       0.01 
freq.    1201.54  E(vib)   ...       0.01 

------------
INNER ENERGY
------------

The inner energy is: U= E(el) + E(ZPE) + E(vib) + E(rot) + E(trans)
    E(el)   - is the total energy from the electronic structure calculation
              = E(kin-el) + E(nuc-el) + E(el-el) + E(nuc-nuc)
    E(ZPE)  - the the zero temperature vibrational energy from the frequency calculation
    E(vib)  - the the finite temperature correction to E(ZPE) due to population
              of excited vibrational states
    E(rot)  - is the rotational thermal energy
    E(trans)- is the translational thermal energy

Summary of contributions to the inner energy U:
Electronic energy                ...   -337.62722395 Eh
Zero point energy                ...      0.01215702 Eh       7.63 kcal/mol
Thermal vibrational correction   ...      0.00054895 Eh       0.34 kcal/mol
Thermal rotational correction    ...      0.00141627 Eh       0.89 kcal/mol
Thermal translational correction ...      0.00141627 Eh       0.89 kcal/mol
-----------------------------------------------------------------------
Total thermal energy                   -337.61168544 Eh


Summary of corrections to the electronic energy:
(perhaps to be used in another calculation)
Total thermal correction                  0.00338149 Eh       2.12 kcal/mol
Non-thermal (ZPE) correction              0.01215702 Eh       7.63 kcal/mol
-----------------------------------------------------------------------
Total correction                          0.01553852 Eh       9.75 kcal/mol


--------
ENTHALPY
--------

The enthalpy is H = U + kB*T
                kB is Boltzmann's constant
Total free energy                 ...   -337.61168544 Eh 
Thermal Enthalpy correction       ...      0.00094421 Eh       0.59 kcal/mol
-----------------------------------------------------------------------
Total Enthalpy                    ...   -337.61074123 Eh


Note: Rotational entropy computed according to Herzberg 
Infrared and Raman Spectra, Chapter V,1, Van Nostrand Reinhold, 1945 
Point Group:  Cs, Symmetry Number:   1  
Rotational constants in cm-1:     0.370969     0.370917     0.195844 

Vibrational entropy computed according to the QRRHO of S. Grimme
Chem.Eur.J. 2012 18 9955


-------
ENTROPY
-------

The entropy contributions are T*S = T*(S(el)+S(vib)+S(rot)+S(trans))
     S(el)   - electronic entropy
     S(vib)  - vibrational entropy
     S(rot)  - rotational entropy
     S(trans)- translational entropy
The entropies will be listed as multiplied by the temperature to get
units of energy

Electronic entropy                ...      0.00065446 Eh      0.41 kcal/mol
Vibrational entropy               ...      0.00073282 Eh      0.46 kcal/mol
Rotational entropy                ...      0.01121687 Eh      7.04 kcal/mol
Translational entropy             ...      0.01834582 Eh     11.51 kcal/mol
-----------------------------------------------------------------------
Final entropy term                ...      0.03094996 Eh     19.42 kcal/mol

In case the symmetry of your molecule has not been determined correctly
or in case you have a reason to use a different symmetry number we print 
out the resulting rotational entropy values for sn=1,12 :
 --------------------------------------------------------
|  sn= 1 | S(rot)=       0.01121687 Eh      7.04 kcal/mol|
|  sn= 2 | S(rot)=       0.01056242 Eh      6.63 kcal/mol|
|  sn= 3 | S(rot)=       0.01017958 Eh      6.39 kcal/mol|
|  sn= 4 | S(rot)=       0.00990796 Eh      6.22 kcal/mol|
|  sn= 5 | S(rot)=       0.00969727 Eh      6.09 kcal/mol|
|  sn= 6 | S(rot)=       0.00952513 Eh      5.98 kcal/mol|
|  sn= 7 | S(rot)=       0.00937958 Eh      5.89 kcal/mol|
|  sn= 8 | S(rot)=       0.00925350 Eh      5.81 kcal/mol|
|  sn= 9 | S(rot)=       0.00914230 Eh      5.74 kcal/mol|
|  sn=10 | S(rot)=       0.00904282 Eh      5.67 kcal/mol|
|  sn=11 | S(rot)=       0.00895283 Eh      5.62 kcal/mol|
|  sn=12 | S(rot)=       0.00887067 Eh      5.57 kcal/mol|
 --------------------------------------------------------


-------------------
GIBBS FREE ENERGY
-------------------

The Gibbs free energy is G = H - T*S

Total enthalpy                    ...   -337.61074123 Eh 
Total entropy correction          ...     -0.03094996 Eh    -19.42 kcal/mol
-----------------------------------------------------------------------
Final Gibbs free energy         ...   -337.64169119 Eh

For completeness - the Gibbs free energy minus the electronic energy
G-E(el)                           ...     -0.01446724 Eh     -9.08 kcal/mol


Timings for individual modules:

Sum of individual times         ...      133.829 sec (=   2.230 min)
GTO integral calculation        ...       43.972 sec (=   0.733 min)  32.9 %
SCF iterations                  ...       49.010 sec (=   0.817 min)  36.6 %
SCF Gradient evaluation         ...       14.410 sec (=   0.240 min)  10.8 %
Geometry relaxation             ...        0.184 sec (=   0.003 min)   0.1 %
Analytical frequency calculation...       26.254 sec (=   0.438 min)  19.6 %
                             ****ORCA TERMINATED NORMALLY****
TOTAL RUN TIME: 0 days 0 hours 2 minutes 27 seconds 820 msec

slurmID:    32260054
totalRuntime[s]:    147.866050952
