
                                 *****************
                                 * O   R   C   A *
                                 *****************

                                            #,                                       
                                            ###                                      
                                            ####                                     
                                            #####                                    
                                            ######                                   
                                           ########,                                 
                                     ,,################,,,,,                         
                               ,,#################################,,                 
                          ,,##########################################,,             
                       ,#########################################, ''#####,          
                    ,#############################################,,   '####,        
                  ,##################################################,,,,####,       
                ,###########''''           ''''###############################       
              ,#####''   ,,,,##########,,,,          '''####'''          '####       
            ,##' ,,,,###########################,,,                        '##       
           ' ,,###''''                  '''############,,,                           
         ,,##''                                '''############,,,,        ,,,,,,###''
      ,#''                                            '''#######################'''  
     '                                                          ''''####''''         
             ,#######,   #######,   ,#######,      ##                                
            ,#'     '#,  ##    ##  ,#'     '#,    #''#        ######   ,####,        
            ##       ##  ##   ,#'  ##            #'  '#       #        #'  '#        
            ##       ##  #######   ##           ,######,      #####,   #    #        
            '#,     ,#'  ##    ##  '#,     ,#' ,#      #,         ##   #,  ,#        
             '#######'   ##     ##  '#######'  #'      '#     #####' # '####'        



                  #######################################################
                  #                        -***-                        #
                  #          Department of theory and spectroscopy      #
                  #    Directorship and core code : Frank Neese         #
                  #        Max Planck Institute fuer Kohlenforschung    #
                  #                Kaiser Wilhelm Platz 1               #
                  #                 D-45470 Muelheim/Ruhr               #
                  #                      Germany                        #
                  #                                                     #
                  #                  All rights reserved                #
                  #                        -***-                        #
                  #######################################################


                         Program Version 5.0.4 -  RELEASE  -


 With contributions from (in alphabetic order):
   Daniel Aravena         : Magnetic Suceptibility
   Michael Atanasov       : Ab Initio Ligand Field Theory (pilot matlab implementation)
   Alexander A. Auer      : GIAO ZORA, VPT2 properties, NMR spectrum
   Ute Becker             : Parallelization
   Giovanni Bistoni       : ED, misc. LED, open-shell LED, HFLD
   Martin Brehm           : Molecular dynamics
   Dmytro Bykov           : SCF Hessian
   Vijay G. Chilkuri      : MRCI spin determinant printing, contributions to CSF-ICE
   Dipayan Datta          : RHF DLPNO-CCSD density
   Achintya Kumar Dutta   : EOM-CC, STEOM-CC
   Dmitry Ganyushin       : Spin-Orbit,Spin-Spin,Magnetic field MRCI
   Miquel Garcia          : C-PCM and meta-GGA Hessian, CC/C-PCM, Gaussian charge scheme
   Yang Guo               : DLPNO-NEVPT2, F12-NEVPT2, CIM, IAO-localization
   Andreas Hansen         : Spin unrestricted coupled pair/coupled cluster methods
   Benjamin Helmich-Paris : MC-RPA, TRAH-SCF, COSX integrals
   Lee Huntington         : MR-EOM, pCC
   Robert Izsak           : Overlap fitted RIJCOSX, COSX-SCS-MP3, EOM
   Marcus Kettner         : VPT2
   Christian Kollmar      : KDIIS, OOCD, Brueckner-CCSD(T), CCSD density, CASPT2, CASPT2-K
   Simone Kossmann        : Meta GGA functionals, TD-DFT gradient, OOMP2, MP2 Hessian
   Martin Krupicka        : Initial AUTO-CI
   Lucas Lang             : DCDCAS
   Marvin Lechner         : AUTO-CI (C++ implementation), FIC-MRCC
   Dagmar Lenk            : GEPOL surface, SMD
   Dimitrios Liakos       : Extrapolation schemes; Compound Job, initial MDCI parallelization
   Dimitrios Manganas     : Further ROCIS development; embedding schemes
   Dimitrios Pantazis     : SARC Basis sets
   Anastasios Papadopoulos: AUTO-CI, single reference methods and gradients
   Taras Petrenko         : DFT Hessian,TD-DFT gradient, ASA, ECA, R-Raman, ABS, FL, XAS/XES, NRVS
   Peter Pinski           : DLPNO-MP2, DLPNO-MP2 Gradient
   Christoph Reimann      : Effective Core Potentials
   Marius Retegan         : Local ZFS, SOC
   Christoph Riplinger    : Optimizer, TS searches, QM/MM, DLPNO-CCSD(T), (RO)-DLPNO pert. Triples
   Tobias Risthaus        : Range-separated hybrids, TD-DFT gradient, RPA, STAB
   Michael Roemelt        : Original ROCIS implementation
   Masaaki Saitow         : Open-shell DLPNO-CCSD energy and density
   Barbara Sandhoefer     : DKH picture change effects
   Avijit Sen             : IP-ROCIS
   Kantharuban Sivalingam : CASSCF convergence, NEVPT2, FIC-MRCI
   Bernardo de Souza      : ESD, SOC TD-DFT
   Georgi Stoychev        : AutoAux, RI-MP2 NMR, DLPNO-MP2 response
   Willem Van den Heuvel  : Paramagnetic NMR
   Boris Wezisla          : Elementary symmetry handling
   Frank Wennmohs         : Technical directorship


 We gratefully acknowledge several colleagues who have allowed us to
 interface, adapt or use parts of their codes:
   Stefan Grimme, W. Hujo, H. Kruse, P. Pracht,  : VdW corrections, initial TS optimization,
                  C. Bannwarth, S. Ehlert          DFT functionals, gCP, sTDA/sTD-DF
   Ed Valeev, F. Pavosevic, A. Kumar             : LibInt (2-el integral package), F12 methods
   Garnet Chan, S. Sharma, J. Yang, R. Olivares  : DMRG
   Ulf Ekstrom                                   : XCFun DFT Library
   Mihaly Kallay                                 : mrcc  (arbitrary order and MRCC methods)
   Jiri Pittner, Ondrej Demel                    : Mk-CCSD
   Frank Weinhold                                : gennbo (NPA and NBO analysis)
   Christopher J. Cramer and Donald G. Truhlar   : smd solvation model
   Lars Goerigk                                  : TD-DFT with DH, B97 family of functionals
   V. Asgeirsson, H. Jonsson                     : NEB implementation
   FAccTs GmbH                                   : IRC, NEB, NEB-TS, DLPNO-Multilevel, CI-OPT
                                                   MM, QMMM, 2- and 3-layer-ONIOM, Crystal-QMMM,
                                                   LR-CPCM, SF, NACMEs, symmetry and pop. for TD-DFT,
                                                   nearIR, NL-DFT gradient (VV10), updates on ESD,
                                                   ML-optimized integration grids
   S Lehtola, MJT Oliveira, MAL Marques          : LibXC Library
   Liviu Ungur et al                             : ANISO software


 Your calculation uses the libint2 library for the computation of 2-el integrals
 For citations please refer to: http://libint.valeyev.net

 Your ORCA version has been built with support for libXC version: 5.1.0
 For citations please refer to: https://tddft.org/programs/libxc/

 This ORCA versions uses:
   CBLAS   interface :  Fast vector & matrix operations
   LAPACKE interface :  Fast linear algebra routines
   SCALAPACK package :  Parallel linear algebra routines
   Shared memory     :  Shared parallel matrices
   BLAS/LAPACK       :  OpenBLAS 0.3.15  USE64BITINT DYNAMIC_ARCH NO_AFFINITY SkylakeX SINGLE_THREADED
        Core in use  :  SkylakeX
   Copyright (c) 2011-2014, The OpenBLAS Project


Your calculation utilizes the atom-pairwise dispersion correction
with the zero-damping scheme (D30)
Cite in your paper:
S.Grimme, J.Antony, S.Ehrlich and H.Krieg, J.Chem.Phys., 132, (2010), 154104 
   

XCFun DFT library Copyright 2009-2010 Ulf Ekstrom and contributors.
See http://admol.org/xcfun for more information.
This is free software; see the source code for copying conditions.
There is ABSOLUTELY NO WARRANTY; not even for MERCHANTABILITY or FITNESS FOR A PARTICULAR PURPOSE.
For details see the documentation.
Scientific users of this library should cite U. Ekstrom, L. Visscher, R. Bast, A. J. Thorvaldsen and K. Ruud;
J.Chem.Theor.Comp. 2010, DOI: 10.1021/ct100117s
XCFun Version 0.99 

================================================================================

----- Orbital basis set information -----
Your calculation utilizes the basis: def2-TZVPD
   F. Weigend and R. Ahlrichs, Phys. Chem. Chem. Phys. 7, 3297 (2005).
   D. Rappoport and F. Furche, J. Chem. Phys. 133 134105 (2010).

----- AuxJ basis set information -----
Your calculation utilizes the auxiliary basis: def2/J
   F. Weigend, Phys. Chem. Chem. Phys. 8, 1057 (2006).

================================================================================
                                        WARNINGS
                       Please study these warnings very carefully!
================================================================================


WARNING: Geometry Optimization
  ===> : Switching off AutoStart
         For restart on a previous wavefunction, please use MOREAD

INFO   : the flag for use of the SHARK integral package has been found!

================================================================================
                                       INPUT FILE
================================================================================
NAME = /beegfs/scratch/ispackman/PFAS_EPR_calcs/benchmark/JChemEd_CF3_radical/CF3_radical_101.0_degrees_IN-PROGRESS/CF3_radical_101.0_degrees.inp
|  1> ! UKS TightSCF wB97x-D3 def2-TZVPD xyzfile opt freq
|  2> 
|  3> # CF3 radical 101.0 degrees fixed
|  4> 
|  5> %maxcore 1000
|  6> %pal
|  7> nprocs 18
|  8> end
|  9> 
| 10> %geom Constraints
| 11>         { A * 0 * C }
| 12>     end
| 13> end
| 14> * xyz 0 2
| 15> C 0.00 0.00 0.00
| 16> F 1.1716588483 0.0000000000 -0.5970264176
| 17> F -0.5858294241 1.0146863272 -0.5970264176
| 18> F -0.5858294241 -1.0146863272 -0.5970264176
| 19> **                         ****END OF INPUT****
================================================================================

                       *****************************
                       * Geometry Optimization Run *
                       *****************************

Geometry optimization settings:
Update method            Update   .... BFGS
Choice of coordinates    CoordSys .... Z-matrix Internals
Initial Hessian          InHess   .... Almoef's Model

Convergence Tolerances:
Energy Change            TolE     ....  5.0000e-06 Eh
Max. Gradient            TolMAXG  ....  3.0000e-04 Eh/bohr
RMS Gradient             TolRMSG  ....  1.0000e-04 Eh/bohr
Max. Displacement        TolMAXD  ....  4.0000e-03 bohr
RMS Displacement         TolRMSD  ....  2.0000e-03 bohr
Strict Convergence                ....  False
------------------------------------------------------------------------------
                        ORCA OPTIMIZATION COORDINATE SETUP
------------------------------------------------------------------------------

The optimization will be done in new redundant internal coordinates
Making redundant internal coordinates   ...  (new redundants) done
Evaluating the initial hessian          ...  (Almloef) done
Evaluating the coordinates              ...  done
Calculating the B-matrix                .... done
Calculating the G-matrix                .... done
Diagonalizing the G-matrix              .... done
Imposing constraints:
 Iter   0:  RMS(Cart)=    0.0000000000 RMS(Int)=    0.0000000000
CONVERGED
Will constrain atom 0 coordinate 1 
Will constrain atom 0 coordinate 2 
Will constrain atom 1 coordinate 2 
The first mode is                       ....    1
The number of degrees of freedom        ....    6
Storing new coordinates                 .... done

    -----------------------------------------------------------------
                    Redundant Internal Coordinates


    -----------------------------------------------------------------
         Definition                    Initial Value    Approx d2E/dq
    -----------------------------------------------------------------
      1. B(F   1,C   0)                  1.3150         0.684896   
      2. B(F   2,C   0)                  1.3150         0.684896   
      3. B(F   3,C   0)                  1.3150         0.684896   
      4. A(F   2,C   0,F   3)          101.0000         0.440101 C 
      5. A(F   1,C   0,F   2)          101.0000         0.440101 C 
      6. A(F   1,C   0,F   3)          101.0000         0.440101 C 
      7. I(F   1,F   3,F   2,C   0)     72.5438         0.003198   
    -----------------------------------------------------------------

Number of atoms                         .... 4
Number of degrees of freedom            .... 7

         *************************************************************
         *                GEOMETRY OPTIMIZATION CYCLE   1            *
         *************************************************************
---------------------------------
CARTESIAN COORDINATES (ANGSTROEM)
---------------------------------
  C      0.000000    0.000000    0.000000
  F      1.171659    0.000000   -0.597026
  F     -0.585829    1.014686   -0.597026
  F     -0.585829   -1.014686   -0.597026

----------------------------
CARTESIAN COORDINATES (A.U.)
----------------------------
  NO LB      ZA    FRAG     MASS         X           Y           Z
   0 C     6.0000    0    12.011    0.000000    0.000000    0.000000
   1 F     9.0000    0    18.998    2.214114    0.000000   -1.128216
   2 F     9.0000    0    18.998   -1.107057    1.917479   -1.128216
   3 F     9.0000    0    18.998   -1.107057   -1.917479   -1.128216

--------------------------------
INTERNAL COORDINATES (ANGSTROEM)
--------------------------------
 C      0   0   0     0.000000000000     0.00000000     0.00000000
 F      1   0   0     1.315000000043     0.00000000     0.00000000
 F      1   2   0     1.315000000023   101.00000000     0.00000000
 F      1   2   3     1.315000000023   101.00000000   103.63891270

---------------------------
INTERNAL COORDINATES (A.U.)
---------------------------
 C      0   0   0     0.000000000000     0.00000000     0.00000000
 F      1   0   0     2.484989866187     0.00000000     0.00000000
 F      1   2   0     2.484989866150   101.00000000     0.00000000
 F      1   2   3     2.484989866150   101.00000000   103.63891270

---------------------
BASIS SET INFORMATION
---------------------
There are 2 groups of distinct atoms

 Group   1 Type C   : 12s6p3d1f contracted to 6s3p3d1f pattern {621111/411/111/1}
 Group   2 Type F   : 12s7p3d1f contracted to 6s4p3d1f pattern {621111/4111/111/1}

Atom   0C    basis set group =>   1
Atom   1F    basis set group =>   2
Atom   2F    basis set group =>   2
Atom   3F    basis set group =>   2
---------------------------------
AUXILIARY/J BASIS SET INFORMATION
---------------------------------
There are 2 groups of distinct atoms

 Group   1 Type C   : 12s5p4d2f1g contracted to 6s4p3d1f1g pattern {711111/2111/211/2/1}
 Group   2 Type F   : 12s5p4d2f1g contracted to 6s4p3d1f1g pattern {711111/2111/211/2/1}

Atom   0C    basis set group =>   1
Atom   1F    basis set group =>   2
Atom   2F    basis set group =>   2
Atom   3F    basis set group =>   2


           ************************************************************
           *        Program running with 18 parallel MPI-processes    *
           *              working on a common directory               *
           ************************************************************
------------------------------------------------------------------------------
                           ORCA GTO INTEGRAL CALCULATION
                           -- RI-GTO INTEGRALS CHOSEN --
------------------------------------------------------------------------------
------------------------------------------------------------------------------
                   ___                                                        
                  /   \      - P O W E R E D   B Y -                         
                 /     \                                                     
                 |  |  |   _    _      __       _____    __    __             
                 |  |  |  | |  | |    /  \     |  _  \  |  |  /  |          
                  \  \/   | |  | |   /    \    | | | |  |  | /  /          
                 / \  \   | |__| |  /  /\  \   | |_| |  |  |/  /          
                |  |  |   |  __  | /  /__\  \  |    /   |      \           
                |  |  |   | |  | | |   __   |  |    \   |  |\   \          
                \     /   | |  | | |  |  |  |  | |\  \  |  | \   \       
                 \___/    |_|  |_| |__|  |__|  |_| \__\ |__|  \__/        
                                                                              
                      - O R C A' S   B I G   F R I E N D -                    
                                      &                                       
                       - I N T E G R A L  F E E D E R -                       
                                                                              
 v1 FN, 2020, v2 2021                                                         
------------------------------------------------------------------------------


Reading SHARK input file /beegfs/scratch/ispackman/PFAS_EPR_calcs/benchmark/JChemEd_CF3_radical/CF3_radical_101.0_degrees_IN-PROGRESS/CF3_radical_101.0_degrees.SHARKINP.tmp ... ok
----------------------
SHARK INTEGRAL PACKAGE
----------------------

Number of atoms                             ...      4
Number of basis functions                   ...    157
Number of shells                            ...     55
Maximum angular momentum                    ...      3
Integral batch strategy                     ... SHARK/LIBINT Hybrid
RI-J (if used) integral strategy            ... SPLIT-RIJ (Revised 2003 algorithm where possible)
Printlevel                                  ...      1
Contraction scheme used                     ... SEGMENTED contraction
Coulomb Range Separation                    ... NOT USED
Exchange Range Separation                   ... Long Range
   Mu parameter                             ...  0.250000
   Scaling (regular/separated)              ...  0.195728  0.804272
Finite Nucleus Model                        ... NOT USED
Auxiliary Coulomb fitting basis             ... AVAILABLE
   # of basis functions in Aux-J            ...    196
   # of shells in Aux-J                     ...     60
   Maximum angular momentum in Aux-J        ...      4
Auxiliary J/K fitting basis                 ... NOT available
Auxiliary Correlation fitting basis         ... NOT available
Auxiliary 'external' fitting basis          ... NOT available
Integral threshold                          ...     2.500000e-11
Primitive cut-off                           ...     2.500000e-12
Primitive pair pre-selection threshold      ...     2.500000e-12

Calculating pre-screening integrals         ... done (  0.0 sec) Dimension = 55
Organizing shell pair data                  ... done (  0.0 sec)
Shell pair information
Total number of shell pairs                 ...      1540
Shell pairs after pre-screening             ...      1510
Total number of primitive shell pairs       ...      4274
Primitive shell pairs kept                  ...      3581
          la=0 lb=0:    282 shell pairs
          la=1 lb=0:    360 shell pairs
          la=1 lb=1:    120 shell pairs
          la=2 lb=0:    276 shell pairs
          la=2 lb=1:    180 shell pairs
          la=2 lb=2:     78 shell pairs
          la=3 lb=0:     96 shell pairs
          la=3 lb=1:     60 shell pairs
          la=3 lb=2:     48 shell pairs
          la=3 lb=3:     10 shell pairs

Calculating one electron integrals          ... done (  0.0 sec)
Calculating RI/J V-Matrix + Cholesky decomp.... done (  0.6 sec)
Calculating Nuclear repulsion               ... done (  0.0 sec) ENN=    128.555852644154 Eh

SHARK setup successfully completed in  11.9 seconds

Maximum memory used throughout the entire GTOINT-calculation: 15.2 MB


           ************************************************************
           *        Program running with 18 parallel MPI-processes    *
           *              working on a common directory               *
           ************************************************************
-------------------------------------------------------------------------------
                                 ORCA SCF
-------------------------------------------------------------------------------

------------
SCF SETTINGS
------------
Hamiltonian:
 Density Functional     Method          .... DFT(GTOs)
 Exchange Functional    Exchange        .... WB97X-D3
 Correlation Functional Correlation     .... WB97X-D3
 Gradients option       PostSCFGGA      .... off
 Hybrid DFT is turned on
   Fraction HF Exchange ScalHFX         ....  0.195728
   Scaling of DF-GGA-X  ScalDFX         ....  0.000000
   Scaling of DF-GGA-C  ScalDFC         ....  1.000000
   Scaling of DF-LDA-C  ScalLDAC        ....  1.000000
   Perturbative correction              ....  0.000000
   Density functional embedding theory  .... OFF
 Long-range corrected/Screened/Range-Separated Hybrid DFT is turned on
   Amount of maximum screened exact exchange              ....  0.804272
   Range separation parameter mu (erf(mu*r12)/r12)        ....  0.250000
 RI-approximation to the Coulomb term is turned on
   Number of AuxJ basis functions       .... 196
   RIJ-COSX (HFX calculated with COS-X)).... on


General Settings:
 Integral files         IntName         .... /beegfs/scratch/ispackman/PFAS_EPR_calcs/benchmark/JChemEd_CF3_radical/CF3_radical_101.0_degrees_IN-PROGRESS/CF3_radical_101.0_degrees
 Hartree-Fock type      HFTyp           .... UHF
 Total Charge           Charge          ....    0
 Multiplicity           Mult            ....    2
 Number of Electrons    NEL             ....   33
 Basis Dimension        Dim             ....  157
 Nuclear Repulsion      ENuc            ....    128.5558526442 Eh

Convergence Acceleration:
 DIIS                   CNVDIIS         .... on
   Start iteration      DIISMaxIt       ....    12
   Startup error        DIISStart       ....  0.200000
   # of expansion vecs  DIISMaxEq       ....     5
   Bias factor          DIISBfac        ....   1.050
   Max. coefficient     DIISMaxC        ....  10.000
 Trust-Rad. Augm. Hess. CNVTRAH         .... auto
   Auto Start mean grad. ratio tolernc. ....  1.125000
   Auto Start start iteration           ....    20
   Auto Start num. interpolation iter.  ....    10
   Max. Number of Micro iterations      ....    16
   Max. Number of Macro iterations      .... Maxiter - #DIIS iter
   Number of Davidson start vectors     ....     2
   Converg. threshold I  (grad. norm)   ....   1.000e-05
   Converg. threshold II (energy diff.) ....   1.000e-08
   Grad. Scal. Fac. for Micro threshold ....   0.100
   Minimum threshold for Micro iter.    ....   0.010
   NR start threshold (gradient norm)   ....   0.001
   Initial trust radius                 ....   0.400
   Minimum AH scaling param. (alpha)    ....   1.000
   Maximum AH scaling param. (alpha)    .... 1000.000
   Orbital update algorithm             .... Taylor
   White noise on init. David. guess    .... on
   Maximum white noise                  ....   0.010
   Quad. conv. algorithm                .... NR
 SOSCF                  CNVSOSCF        .... off
 Level Shifting         CNVShift        .... on
   Level shift para.    LevelShift      ....    0.2500
   Turn off err/grad.   ShiftErr        ....    0.0010
 Zerner damping         CNVZerner       .... off
 Static damping         CNVDamp         .... on
   Fraction old density DampFac         ....    0.7000
   Max. Damping (<1)    DampMax         ....    0.9800
   Min. Damping (>=0)   DampMin         ....    0.0000
   Turn off err/grad.   DampErr         ....    0.1000
 Fernandez-Rico         CNVRico         .... off

SCF Procedure:
 Maximum # iterations   MaxIter         ....   125
 SCF integral mode      SCFMode         .... Direct
   Integral package                     .... SHARK and LIBINT hybrid scheme
 Reset frequency        DirectResetFreq ....    20
 Integral Threshold     Thresh          ....  2.500e-11 Eh
 Primitive CutOff       TCut            ....  2.500e-12 Eh

Convergence Tolerance:
 Convergence Check Mode ConvCheckMode   .... Total+1el-Energy
 Convergence forced     ConvForced      .... 0
 Energy Change          TolE            ....  1.000e-08 Eh
 1-El. energy change                    ....  1.000e-05 Eh
 DIIS Error             TolErr          ....  5.000e-07


Diagonalization of the overlap matrix:
Smallest eigenvalue                        ... 3.579e-04
Time for diagonalization                   ...    0.008 sec
Threshold for overlap eigenvalues          ... 1.000e-08
Number of eigenvalues below threshold      ... 0
Time for construction of square roots      ...    0.020 sec
Total time needed                          ...    0.029 sec

Time for model grid setup =    0.073 sec

------------------------------
INITIAL GUESS: MODEL POTENTIAL
------------------------------
Loading Hartree-Fock densities                     ... done
Calculating cut-offs                               ... done
Initializing the effective Hamiltonian             ... done
Setting up the integral package (SHARK)            ... done
Starting the Coulomb interaction                   ... done (   0.8 sec)
Reading the grid                                   ... done
Mapping shells                                     ... done
Starting the XC term evaluation                    ... done (   0.0 sec)
  promolecular density results
     # of electrons  =     33.000317727
     EX              =    -35.103223950
     EC              =     -1.148183303
     EX+EC           =    -36.251407253
Transforming the Hamiltonian                       ... done (   0.0 sec)
Diagonalizing the Hamiltonian                      ... done (   0.0 sec)
Back transforming the eigenvectors                 ... done (   0.0 sec)
Now organizing SCF variables                       ... done
                      ------------------
                      INITIAL GUESS DONE (   1.0 sec)
                      ------------------
-------------------
DFT GRID GENERATION
-------------------

General Integration Accuracy     IntAcc      ... 4.388
Radial Grid Type                 RadialGrid  ... OptM3 with GC (2021)
Angular Grid (max. ang.)         AngularGrid ... 4 (Lebedev-302)
Angular grid pruning method      GridPruning ... 4 (adaptive)
Weight generation scheme         WeightScheme... Becke
Basis function cutoff            BFCut       ... 1.0000e-11
Integration weight cutoff        WCut        ... 1.0000e-14
Angular grids for H and He will be reduced by one unit
Partially contracted basis set               ... off
Rotationally invariant grid construction     ... off

Total number of grid points                  ...    25779
Total number of batches                      ...      405
Average number of points per batch           ...       63
Average number of grid points per atom       ...     6445
Time for grid setup =    0.154 sec

--------------------
COSX GRID GENERATION
--------------------

GRIDX 1
-------
General Integration Accuracy     IntAcc      ... 3.816
Radial Grid Type                 RadialGrid  ... OptM3 with GC (2021)
Angular Grid (max. ang.)         AngularGrid ... 1 (Lebedev-50)
Angular grid pruning method      GridPruning ... 4 (adaptive)
Weight generation scheme         WeightScheme... Becke
Basis function cutoff            BFCut       ... 1.0000e-11
Integration weight cutoff        WCut        ... 1.0000e-14
Angular grids for H and He will be reduced by one unit
Partially contracted basis set               ... on
Rotationally invariant grid construction     ... off

Total number of grid points                  ...     3272
Total number of batches                      ...       53
Average number of points per batch           ...       61
Average number of grid points per atom       ...      818
UseSFitting                                  ... on

GRIDX 2
-------
General Integration Accuracy     IntAcc      ... 4.020
Radial Grid Type                 RadialGrid  ... OptM3 with GC (2021)
Angular Grid (max. ang.)         AngularGrid ... 2 (Lebedev-110)
Angular grid pruning method      GridPruning ... 4 (adaptive)
Weight generation scheme         WeightScheme... Becke
Basis function cutoff            BFCut       ... 1.0000e-11
Integration weight cutoff        WCut        ... 1.0000e-14
Angular grids for H and He will be reduced by one unit
Partially contracted basis set               ... on
Rotationally invariant grid construction     ... off

Total number of grid points                  ...     9118
Total number of batches                      ...      144
Average number of points per batch           ...       63
Average number of grid points per atom       ...     2280
UseSFitting                                  ... on

GRIDX 3
-------
General Integration Accuracy     IntAcc      ... 4.338
Radial Grid Type                 RadialGrid  ... OptM3 with GC (2021)
Angular Grid (max. ang.)         AngularGrid ... 3 (Lebedev-194)
Angular grid pruning method      GridPruning ... 4 (adaptive)
Weight generation scheme         WeightScheme... Becke
Basis function cutoff            BFCut       ... 1.0000e-11
Integration weight cutoff        WCut        ... 1.0000e-14
Angular grids for H and He will be reduced by one unit
Partially contracted basis set               ... on
Rotationally invariant grid construction     ... off

Total number of grid points                  ...    19676
Total number of batches                      ...      309
Average number of points per batch           ...       63
Average number of grid points per atom       ...     4919
UseSFitting                                  ... on

Time for X-Grid setup             =    0.333 sec

--------------
SCF ITERATIONS
--------------
ITER       Energy         Delta-E        Max-DP      RMS-DP      [F,P]     Damp
               ***  Starting incremental Fock matrix formation  ***
  0   -337.5389697350   0.000000000000 0.01739451  0.00040283  0.0668706 0.7000
  1   -337.5667081002  -0.027738365127 0.01022875  0.00026833  0.0313724 0.7000
                               ***Turning on DIIS***
  2   -337.5782508323  -0.011542732117 0.02470227  0.00051088  0.0166555 0.0000
  3   -337.5987884693  -0.020537637021 0.00655765  0.00015052  0.0148816 0.0000
  4   -337.6020743093  -0.003285839962 0.00508962  0.00008290  0.0035341 0.0000
  5   -337.6022945044  -0.000220195141 0.00292657  0.00004938  0.0020593 0.0000
  6   -337.6023616171  -0.000067112649 0.00265761  0.00004516  0.0008668 0.0000
               *** Restarting incremental Fock matrix formation ***
                                   *** Resetting DIIS ***
  7   -337.6023896781  -0.000028061086 0.00050767  0.00000776  0.0001801 0.0000
  8   -337.6023904762  -0.000000798022 0.00009713  0.00000216  0.0000938 0.0000
  9   -337.6023906661  -0.000000189882 0.00005542  0.00000146  0.0000894 0.0000
 10   -337.6023907550  -0.000000088988 0.00004601  0.00000057  0.0000120 0.0000
 11   -337.6023907575  -0.000000002414 0.00001348  0.00000016  0.0000019 0.0000
                            ***DIIS convergence achieved***

               *****************************************************
               *                     SUCCESS                       *
               *           SCF CONVERGED AFTER  12 CYCLES          *
               *****************************************************

Old exchange energy                            =    -10.542398791 Eh
New exchange energy                            =    -10.542378930 Eh
Exchange energy change after final integration =      0.000019861 Eh
Total energy after final integration           =   -337.602370896 Eh
Final COS-X integration done in                =     0.407 sec

----------------
TOTAL SCF ENERGY
----------------

Total Energy       :         -337.60237090 Eh           -9186.62755 eV

Components:
Nuclear Repulsion  :          128.55585264 Eh            3498.18259 eV
Electronic Energy  :         -466.15822354 Eh          -12684.81015 eV
One Electron Energy:         -724.04343665 Eh          -19702.22355 eV
Two Electron Energy:          257.88521311 Eh            7017.41341 eV
Max COSX asymmetry :            0.00000043 Eh               0.00001 eV

Virial components:
Potential Energy   :         -674.40111194 Eh          -18351.38722 eV
Kinetic Energy     :          336.79874104 Eh            9164.75967 eV
Virial Ratio       :            2.00238608


DFT components:
N(Alpha)           :       16.999885073386 electrons
N(Beta)            :       15.999896924514 electrons
N(Total)           :       32.999781997900 electrons
E(XC)              :      -26.214931331285 Eh       
DFET-embed. en.    :        0.000000000000 Eh       

---------------
SCF CONVERGENCE
---------------

  Last Energy change         ...    9.3337e-11  Tolerance :   1.0000e-08
  Last MAX-Density change    ...    0.0000e+00  Tolerance :   1.0000e-07
  Last RMS-Density change    ...    0.0000e+00  Tolerance :   5.0000e-09
  Last DIIS Error            ...    8.0243e-07  Tolerance :   5.0000e-07

             **** THE GBW FILE WAS UPDATED (/beegfs/scratch/ispackman/PFAS_EPR_calcs/benchmark/JChemEd_CF3_radical/CF3_radical_101.0_degrees_IN-PROGRESS/CF3_radical_101.0_degrees.gbw) ****
             **** DENSITY /beegfs/scratch/ispackman/PFAS_EPR_calcs/benchmark/JChemEd_CF3_radical/CF3_radical_101.0_degrees_IN-PROGRESS/CF3_radical_101.0_degrees.scfp WAS UPDATED ****
             **** ENERGY FILE WAS UPDATED (/beegfs/scratch/ispackman/PFAS_EPR_calcs/benchmark/JChemEd_CF3_radical/CF3_radical_101.0_degrees_IN-PROGRESS/CF3_radical_101.0_degrees.en.tmp) ****
----------------------
UHF SPIN CONTAMINATION
----------------------

Warning: in a DFT calculation there is little theoretical justification to 
         calculate <S**2> as in Hartree-Fock theory. We will do it anyways
         but you should keep in mind that the values have only limited relevance

Expectation value of <S**2>     :     0.752149
Ideal value S*(S+1) for S=0.5   :     0.750000
Deviation                       :     0.002149

             **** THE GBW FILE WAS UPDATED (/beegfs/scratch/ispackman/PFAS_EPR_calcs/benchmark/JChemEd_CF3_radical/CF3_radical_101.0_degrees_IN-PROGRESS/CF3_radical_101.0_degrees.gbw) ****
             **** DENSITY /beegfs/scratch/ispackman/PFAS_EPR_calcs/benchmark/JChemEd_CF3_radical/CF3_radical_101.0_degrees_IN-PROGRESS/CF3_radical_101.0_degrees.scfp WAS UPDATED ****
----------------
ORBITAL ENERGIES
----------------
                 SPIN UP ORBITALS
  NO   OCC          E(Eh)            E(eV) 
   0   1.0000     -24.839614      -675.9203 
   1   1.0000     -24.839612      -675.9202 
   2   1.0000     -24.839602      -675.9199 
   3   1.0000     -10.550899      -287.1045 
   4   1.0000      -1.484627       -40.3988 
   5   1.0000      -1.367204       -37.2035 
   6   1.0000      -1.367197       -37.2033 
   7   1.0000      -0.838486       -22.8164 
   8   1.0000      -0.725137       -19.7320 
   9   1.0000      -0.725128       -19.7317 
  10   1.0000      -0.707541       -19.2532 
  11   1.0000      -0.606196       -16.4954 
  12   1.0000      -0.606190       -16.4953 
  13   1.0000      -0.546161       -14.8618 
  14   1.0000      -0.546154       -14.8616 
  15   1.0000      -0.525834       -14.3087 
  16   1.0000      -0.431611       -11.7447 
  17   0.0000       0.072546         1.9741 
  18   0.0000       0.105444         2.8693 
  19   0.0000       0.105444         2.8693 
  20   0.0000       0.111888         3.0446 
  21   0.0000       0.160187         4.3589 
  22   0.0000       0.160188         4.3589 
  23   0.0000       0.172051         4.6817 
  24   0.0000       0.172051         4.6817 
  25   0.0000       0.189810         5.1650 
  26   0.0000       0.214815         5.8454 
  27   0.0000       0.214822         5.8456 
  28   0.0000       0.240737         6.5508 
  29   0.0000       0.288420         7.8483 
  30   0.0000       0.349065         9.4985 
  31   0.0000       0.349072         9.4987 
  32   0.0000       0.350310         9.5324 
  33   0.0000       0.385891        10.5006 
  34   0.0000       0.385891        10.5006 
  35   0.0000       0.399413        10.8686 
  36   0.0000       0.403096        10.9688 
  37   0.0000       0.403097        10.9688 
  38   0.0000       0.422817        11.5054 
  39   0.0000       0.486853        13.2479 
  40   0.0000       0.486859        13.2481 
  41   0.0000       0.522425        14.2159 
  42   0.0000       0.566826        15.4241 
  43   0.0000       0.625883        17.0312 
  44   0.0000       0.625885        17.0312 
  45   0.0000       0.695385        18.9224 
  46   0.0000       0.695389        18.9225 
  47   0.0000       0.709703        19.3120 
  48   0.0000       0.727977        19.8093 
  49   0.0000       0.730919        19.8893 
  50   0.0000       0.730928        19.8896 
  51   0.0000       0.765820        20.8390 
  52   0.0000       0.794285        21.6136 
  53   0.0000       0.794287        21.6136 
  54   0.0000       0.873256        23.7625 
  55   0.0000       0.900243        24.4969 
  56   0.0000       0.900248        24.4970 
  57   0.0000       0.931647        25.3514 
  58   0.0000       0.971251        26.4291 
  59   0.0000       0.971261        26.4294 
  60   0.0000       1.076977        29.3060 
  61   0.0000       1.076982        29.3062 
  62   0.0000       1.110652        30.2224 
  63   0.0000       1.164526        31.6884 
  64   0.0000       1.164532        31.6885 
  65   0.0000       1.166316        31.7371 
  66   0.0000       1.235856        33.6294 
  67   0.0000       1.248697        33.9788 
  68   0.0000       1.248699        33.9788 
  69   0.0000       1.313822        35.7509 
  70   0.0000       1.313826        35.7510 
  71   0.0000       1.337777        36.4028 
  72   0.0000       1.454010        39.5656 
  73   0.0000       1.454043        39.5665 
  74   0.0000       1.662009        45.2256 
  75   0.0000       2.128103        57.9086 
  76   0.0000       2.168085        58.9966 
  77   0.0000       2.168086        58.9966 
  78   0.0000       2.196370        59.7663 
  79   0.0000       2.215704        60.2924 
  80   0.0000       2.220289        60.4171 
  81   0.0000       2.220298        60.4174 
  82   0.0000       2.328586        63.3641 
  83   0.0000       2.328627        63.3652 
  84   0.0000       2.405207        65.4490 
  85   0.0000       2.465534        67.0906 
  86   0.0000       2.465539        67.0907 
  87   0.0000       2.591035        70.5057 
  88   0.0000       2.591045        70.5059 
  89   0.0000       2.842813        77.3569 
  90   0.0000       2.920826        79.4797 
  91   0.0000       2.935437        79.8773 
  92   0.0000       2.935475        79.8783 
  93   0.0000       3.085665        83.9652 
  94   0.0000       3.181409        86.5705 
  95   0.0000       3.184697        86.6600 
  96   0.0000       3.184744        86.6613 
  97   0.0000       3.294723        89.6540 
  98   0.0000       3.294787        89.6557 
  99   0.0000       3.399279        92.4991 
 100   0.0000       3.399301        92.4997 
 101   0.0000       3.440153        93.6113 
 102   0.0000       3.622307        98.5680 
 103   0.0000       3.622317        98.5682 
 104   0.0000       3.705042       100.8193 
 105   0.0000       3.840581       104.5075 
 106   0.0000       3.923244       106.7569 
 107   0.0000       3.964956       107.8919 
 108   0.0000       3.965024       107.8938 
 109   0.0000       4.097095       111.4876 
 110   0.0000       4.097108       111.4880 
 111   0.0000       4.196541       114.1937 
 112   0.0000       4.267088       116.1134 
 113   0.0000       4.267146       116.1149 
 114   0.0000       5.389334       146.6512 
 115   0.0000       5.389369       146.6522 
 116   0.0000       5.440762       148.0507 
 117   0.0000       6.912192       188.0903 
 118   0.0000       6.912203       188.0906 
 119   0.0000       6.914329       188.1485 
 120   0.0000       6.923067       188.3862 
 121   0.0000       6.923131       188.3880 
 122   0.0000       6.929889       188.5719 
 123   0.0000       6.934077       188.6858 
 124   0.0000       6.934130       188.6873 
 125   0.0000       6.947525       189.0518 
 126   0.0000       7.065769       192.2693 
 127   0.0000       7.065856       192.2717 
 128   0.0000       7.154707       194.6895 
 129   0.0000       7.251977       197.3363 
 130   0.0000       7.251984       197.3365 
 131   0.0000       7.258038       197.5013 
 132   0.0000       7.482046       203.5968 
 133   0.0000       7.523333       204.7203 
 134   0.0000       7.561676       205.7637 
 135   0.0000       7.561696       205.7642 
 136   0.0000       7.776562       211.6110 
 137   0.0000       7.776643       211.6132 
 138   0.0000       8.515382       231.7153 
 139   0.0000       8.515417       231.7163 
 140   0.0000       8.570728       233.2214 
 141   0.0000       8.596757       233.9297 
 142   0.0000       8.610925       234.3152 
 143   0.0000       8.611011       234.3175 
 144   0.0000       8.818362       239.9598 
 145   0.0000       8.827848       240.2180 
 146   0.0000       8.827868       240.2185 
 147   0.0000       9.008360       245.1299 
 148   0.0000       9.136138       248.6069 
 149   0.0000       9.136197       248.6086 
 150   0.0000       9.246565       251.6118 
 151   0.0000       9.405609       255.9396 
 152   0.0000       9.405654       255.9409 
 153   0.0000      22.696264       617.5968 
 154   0.0000      57.342085      1560.3575 
 155   0.0000      57.342122      1560.3585 
 156   0.0000      57.396403      1561.8355 

                 SPIN DOWN ORBITALS
  NO   OCC          E(Eh)            E(eV) 
   0   1.0000     -24.836752      -675.8424 
   1   1.0000     -24.836747      -675.8422 
   2   1.0000     -24.836732      -675.8418 
   3   1.0000     -10.538010      -286.7538 
   4   1.0000      -1.475713       -40.1562 
   5   1.0000      -1.358556       -36.9682 
   6   1.0000      -1.358548       -36.9680 
   7   1.0000      -0.820408       -22.3244 
   8   1.0000      -0.714589       -19.4449 
   9   1.0000      -0.714578       -19.4447 
  10   1.0000      -0.666741       -18.1430 
  11   1.0000      -0.594530       -16.1780 
  12   1.0000      -0.594524       -16.1778 
  13   1.0000      -0.538487       -14.6530 
  14   1.0000      -0.538479       -14.6528 
  15   1.0000      -0.522538       -14.2190 
  16   0.0000      -0.080005        -2.1770 
  17   0.0000       0.082864         2.2548 
  18   0.0000       0.108531         2.9533 
  19   0.0000       0.108531         2.9533 
  20   0.0000       0.126736         3.4487 
  21   0.0000       0.164773         4.4837 
  22   0.0000       0.164774         4.4837 
  23   0.0000       0.177895         4.8408 
  24   0.0000       0.177895         4.8408 
  25   0.0000       0.200828         5.4648 
  26   0.0000       0.237597         6.4653 
  27   0.0000       0.237600         6.4654 
  28   0.0000       0.241582         6.5738 
  29   0.0000       0.294148         8.0042 
  30   0.0000       0.362478         9.8635 
  31   0.0000       0.369441        10.0530 
  32   0.0000       0.369447        10.0532 
  33   0.0000       0.387092        10.5333 
  34   0.0000       0.387093        10.5333 
  35   0.0000       0.405999        11.0478 
  36   0.0000       0.406000        11.0478 
  37   0.0000       0.408011        11.1026 
  38   0.0000       0.432427        11.7669 
  39   0.0000       0.488261        13.2862 
  40   0.0000       0.488266        13.2864 
  41   0.0000       0.526438        14.3251 
  42   0.0000       0.572037        15.5659 
  43   0.0000       0.627867        17.0851 
  44   0.0000       0.627872        17.0853 
  45   0.0000       0.696797        18.9608 
  46   0.0000       0.696799        18.9609 
  47   0.0000       0.709989        19.3198 
  48   0.0000       0.733568        19.9614 
  49   0.0000       0.733579        19.9617 
  50   0.0000       0.738948        20.1078 
  51   0.0000       0.765034        20.8176 
  52   0.0000       0.796152        21.6644 
  53   0.0000       0.796153        21.6644 
  54   0.0000       0.874503        23.7964 
  55   0.0000       0.902805        24.5666 
  56   0.0000       0.902810        24.5667 
  57   0.0000       0.946068        25.7438 
  58   0.0000       0.978882        26.6367 
  59   0.0000       0.978893        26.6370 
  60   0.0000       1.080201        29.3938 
  61   0.0000       1.080207        29.3939 
  62   0.0000       1.114782        30.3348 
  63   0.0000       1.166456        31.7409 
  64   0.0000       1.166468        31.7412 
  65   0.0000       1.179469        32.0950 
  66   0.0000       1.238612        33.7043 
  67   0.0000       1.259666        34.2773 
  68   0.0000       1.259672        34.2774 
  69   0.0000       1.321049        35.9476 
  70   0.0000       1.321072        35.9482 
  71   0.0000       1.338143        36.4127 
  72   0.0000       1.456064        39.6215 
  73   0.0000       1.456097        39.6224 
  74   0.0000       1.716776        46.7159 
  75   0.0000       2.137383        58.1611 
  76   0.0000       2.177501        59.2528 
  77   0.0000       2.177515        59.2532 
  78   0.0000       2.199723        59.8575 
  79   0.0000       2.226659        60.5905 
  80   0.0000       2.227965        60.6260 
  81   0.0000       2.227967        60.6261 
  82   0.0000       2.333539        63.4988 
  83   0.0000       2.333578        63.4999 
  84   0.0000       2.406513        65.4846 
  85   0.0000       2.472460        67.2791 
  86   0.0000       2.472461        67.2791 
  87   0.0000       2.615227        71.1639 
  88   0.0000       2.615256        71.1647 
  89   0.0000       2.850205        77.5580 
  90   0.0000       2.926173        79.6252 
  91   0.0000       2.940249        80.0082 
  92   0.0000       2.940277        80.0090 
  93   0.0000       3.103912        84.4617 
  94   0.0000       3.198795        87.0436 
  95   0.0000       3.198835        87.0447 
  96   0.0000       3.234002        88.0017 
  97   0.0000       3.322438        90.4081 
  98   0.0000       3.322484        90.4094 
  99   0.0000       3.442924        93.6867 
 100   0.0000       3.442926        93.6868 
 101   0.0000       3.448391        93.8355 
 102   0.0000       3.641540        99.0913 
 103   0.0000       3.641549        99.0916 
 104   0.0000       3.739860       101.7668 
 105   0.0000       3.850285       104.7716 
 106   0.0000       3.930413       106.9520 
 107   0.0000       3.993718       108.6746 
 108   0.0000       3.993764       108.6758 
 109   0.0000       4.104619       111.6924 
 110   0.0000       4.104626       111.6925 
 111   0.0000       4.208663       114.5235 
 112   0.0000       4.277143       116.3870 
 113   0.0000       4.277200       116.3885 
 114   0.0000       5.398957       146.9131 
 115   0.0000       5.398967       146.9134 
 116   0.0000       5.453528       148.3980 
 117   0.0000       6.917817       188.2434 
 118   0.0000       6.917834       188.2438 
 119   0.0000       6.919352       188.2851 
 120   0.0000       6.926292       188.4740 
 121   0.0000       6.926347       188.4755 
 122   0.0000       6.935334       188.7200 
 123   0.0000       6.939359       188.8296 
 124   0.0000       6.939408       188.8309 
 125   0.0000       6.950113       189.1222 
 126   0.0000       7.071302       192.4199 
 127   0.0000       7.071384       192.4221 
 128   0.0000       7.158671       194.7974 
 129   0.0000       7.259561       197.5427 
 130   0.0000       7.259562       197.5427 
 131   0.0000       7.264660       197.6814 
 132   0.0000       7.491743       203.8607 
 133   0.0000       7.531493       204.9423 
 134   0.0000       7.568405       205.9468 
 135   0.0000       7.568419       205.9472 
 136   0.0000       7.784318       211.8221 
 137   0.0000       7.784414       211.8247 
 138   0.0000       8.523047       231.9239 
 139   0.0000       8.523079       231.9248 
 140   0.0000       8.578258       233.4263 
 141   0.0000       8.606643       234.1987 
 142   0.0000       8.620634       234.5794 
 143   0.0000       8.620720       234.5817 
 144   0.0000       8.823713       240.1054 
 145   0.0000       8.837195       240.4723 
 146   0.0000       8.837218       240.4729 
 147   0.0000       9.017402       245.3760 
 148   0.0000       9.141014       248.7396 
 149   0.0000       9.141066       248.7411 
 150   0.0000       9.252424       251.7713 
 151   0.0000       9.412270       256.1209 
 152   0.0000       9.412318       256.1222 
 153   0.0000      22.719374       618.2256 
 154   0.0000      57.344918      1560.4345 
 155   0.0000      57.344956      1560.4356 
 156   0.0000      57.399266      1561.9134 

                    ********************************
                    * MULLIKEN POPULATION ANALYSIS *
                    ********************************

--------------------------------------------
MULLIKEN ATOMIC CHARGES AND SPIN POPULATIONS
--------------------------------------------
   0 C :    0.565213    0.782974
   1 F :   -0.188394    0.072356
   2 F :   -0.188408    0.072334
   3 F :   -0.188411    0.072336
Sum of atomic charges         :   -0.0000000
Sum of atomic spin populations:    1.0000000

-----------------------------------------------------
MULLIKEN REDUCED ORBITAL CHARGES AND SPIN POPULATIONS
-----------------------------------------------------
CHARGE
  0 C s       :     3.188324  s :     3.188324
      pz      :     0.834596  p :     1.909832
      px      :     0.537604
      py      :     0.537633
      dz2     :     0.059974  d :     0.293501
      dxz     :     0.047132
      dyz     :     0.047147
      dx2y2   :     0.069625
      dxy     :     0.069623
      f0      :     0.001457  f :     0.043129
      f+1     :     0.006649
      f-1     :     0.006650
      f+2     :     0.007297
      f-2     :     0.007301
      f+3     :     0.004066
      f-3     :     0.009709
  1 F s       :     3.953148  s :     3.953148
      pz      :     1.738957  p :     5.225513
      px      :     1.559688
      py      :     1.926868
      dz2     :     0.000657  d :     0.008891
      dxz     :     0.005327
      dyz     :     0.001554
      dx2y2   :     0.004425
      dxy     :    -0.003072
      f0      :     0.000084  f :     0.000842
      f+1     :     0.000173
      f-1     :     0.000005
      f+2     :     0.000219
      f-2     :     0.000071
      f+3     :     0.000158
      f-3     :     0.000131
  2 F s       :     3.953182  s :     3.953182
      pz      :     1.738928  p :     5.225512
      px      :     1.835080
      py      :     1.651505
      dz2     :     0.000654  d :     0.008872
      dxz     :     0.002495
      dyz     :     0.004381
      dx2y2   :    -0.001200
      dxy     :     0.002543
      f0      :     0.000084  f :     0.000842
      f+1     :     0.000047
      f-1     :     0.000131
      f+2     :     0.000108
      f-2     :     0.000182
      f+3     :     0.000158
      f-3     :     0.000131
  3 F s       :     3.953184  s :     3.953184
      pz      :     1.738929  p :     5.225513
      px      :     1.835080
      py      :     1.651505
      dz2     :     0.000654  d :     0.008872
      dxz     :     0.002495
      dyz     :     0.004381
      dx2y2   :    -0.001200
      dxy     :     0.002543
      f0      :     0.000084  f :     0.000842
      f+1     :     0.000047
      f-1     :     0.000131
      f+2     :     0.000108
      f-2     :     0.000182
      f+3     :     0.000158
      f-3     :     0.000131

SPIN
  0 C s       :     0.275797  s :     0.275797
      pz      :     0.472678  p :     0.497755
      px      :     0.012536
      py      :     0.012541
      dz2     :     0.014965  d :     0.010171
      dxz     :    -0.001472
      dyz     :    -0.001473
      dx2y2   :    -0.000926
      dxy     :    -0.000922
      f0      :    -0.000045  f :    -0.000750
      f+1     :    -0.000346
      f-1     :    -0.000345
      f+2     :    -0.000199
      f-2     :    -0.000199
      f+3     :     0.000342
      f-3     :     0.000043
  1 F s       :     0.003217  s :     0.003217
      pz      :     0.071644  p :     0.067637
      px      :    -0.002795
      py      :    -0.001212
      dz2     :    -0.000054  d :     0.001471
      dxz     :     0.000812
      dyz     :    -0.000014
      dx2y2   :     0.000821
      dxy     :    -0.000094
      f0      :     0.000001  f :     0.000030
      f+1     :     0.000017
      f-1     :     0.000001
      f+2     :     0.000002
      f-2     :     0.000002
      f+3     :     0.000008
      f-3     :    -0.000000
  2 F s       :     0.003216  s :     0.003216
      pz      :     0.071608  p :     0.067613
      px      :    -0.001598
      py      :    -0.002396
      dz2     :    -0.000054  d :     0.001475
      dxz     :     0.000193
      dyz     :     0.000605
      dx2y2   :     0.000136
      dxy     :     0.000595
      f0      :     0.000001  f :     0.000030
      f+1     :     0.000005
      f-1     :     0.000013
      f+2     :     0.000002
      f-2     :     0.000002
      f+3     :     0.000008
      f-3     :    -0.000000
  3 F s       :     0.003217  s :     0.003217
      pz      :     0.071608  p :     0.067613
      px      :    -0.001598
      py      :    -0.002396
      dz2     :    -0.000054  d :     0.001475
      dxz     :     0.000193
      dyz     :     0.000605
      dx2y2   :     0.000136
      dxy     :     0.000595
      f0      :     0.000001  f :     0.000030
      f+1     :     0.000005
      f-1     :     0.000013
      f+2     :     0.000002
      f-2     :     0.000002
      f+3     :     0.000008
      f-3     :    -0.000000


                     *******************************
                     * LOEWDIN POPULATION ANALYSIS *
                     *******************************

-------------------------------------------
LOEWDIN ATOMIC CHARGES AND SPIN POPULATIONS
-------------------------------------------
   0 C :   -0.349270    0.624017
   1 F :    0.116413    0.125342
   2 F :    0.116429    0.125321
   3 F :    0.116429    0.125321

----------------------------------------------------
LOEWDIN REDUCED ORBITAL CHARGES AND SPIN POPULATIONS
----------------------------------------------------
CHARGE
  0 C s       :     2.707140  s :     2.707140
      pz      :     0.805181  p :     2.167246
      px      :     0.681016
      py      :     0.681049
      dz2     :     0.172879  d :     1.196018
      dxz     :     0.212533
      dyz     :     0.212542
      dx2y2   :     0.299033
      dxy     :     0.299032
      f0      :     0.015968  f :     0.278865
      f+1     :     0.032503
      f-1     :     0.032502
      f+2     :     0.054145
      f-2     :     0.054148
      f+3     :     0.036669
      f-3     :     0.052930
  1 F s       :     3.553378  s :     3.553378
      pz      :     1.680207  p :     5.096176
      px      :     1.628274
      py      :     1.787695
      dz2     :     0.039298  d :     0.232026
      dxz     :     0.065910
      dyz     :     0.010799
      dx2y2   :     0.043415
      dxy     :     0.072605
      f0      :     0.000174  f :     0.002007
      f+1     :     0.000501
      f-1     :     0.000005
      f+2     :     0.000486
      f-2     :     0.000159
      f+3     :     0.000323
      f-3     :     0.000359
  2 F s       :     3.553376  s :     3.553376
      pz      :     1.680214  p :     5.096168
      px      :     1.747832
      py      :     1.668122
      dz2     :     0.039297  d :     0.232020
      dxz     :     0.024576
      dyz     :     0.052131
      dx2y2   :     0.065305
      dxy     :     0.050711
      f0      :     0.000174  f :     0.002007
      f+1     :     0.000129
      f-1     :     0.000377
      f+2     :     0.000241
      f-2     :     0.000404
      f+3     :     0.000323
      f-3     :     0.000359
  3 F s       :     3.553377  s :     3.553377
      pz      :     1.680214  p :     5.096168
      px      :     1.747832
      py      :     1.668122
      dz2     :     0.039297  d :     0.232020
      dxz     :     0.024576
      dyz     :     0.052131
      dx2y2   :     0.065305
      dxy     :     0.050711
      f0      :     0.000174  f :     0.002007
      f+1     :     0.000129
      f-1     :     0.000377
      f+2     :     0.000241
      f-2     :     0.000404
      f+3     :     0.000323
      f-3     :     0.000359

SPIN
  0 C s       :     0.156349  s :     0.156349
      pz      :     0.399141  p :     0.410576
      px      :     0.005715
      py      :     0.005721
      dz2     :     0.057588  d :     0.048950
      dxz     :    -0.003676
      dyz     :    -0.003677
      dx2y2   :    -0.000644
      dxy     :    -0.000641
      f0      :     0.001323  f :     0.008142
      f+1     :    -0.000219
      f-1     :    -0.000219
      f+2     :    -0.000184
      f-2     :    -0.000185
      f+3     :     0.007622
      f-3     :     0.000003
  1 F s       :     0.014888  s :     0.014888
      pz      :     0.075980  p :     0.081155
      px      :     0.005833
      py      :    -0.000658
      dz2     :     0.010088  d :     0.028978
      dxz     :     0.018012
      dyz     :    -0.000190
      dx2y2   :     0.001069
      dxy     :    -0.000002
      f0      :    -0.000000  f :     0.000321
      f+1     :     0.000251
      f-1     :     0.000001
      f+2     :     0.000040
      f-2     :     0.000001
      f+3     :     0.000026
      f-3     :     0.000003
  2 F s       :     0.014888  s :     0.014888
      pz      :     0.075954  p :     0.081132
      px      :     0.000968
      py      :     0.004210
      dz2     :     0.010089  d :     0.028980
      dxz     :     0.004361
      dyz     :     0.013462
      dx2y2   :     0.000266
      dxy     :     0.000802
      f0      :    -0.000000  f :     0.000321
      f+1     :     0.000063
      f-1     :     0.000188
      f+2     :     0.000011
      f-2     :     0.000030
      f+3     :     0.000026
      f-3     :     0.000003
  3 F s       :     0.014888  s :     0.014888
      pz      :     0.075954  p :     0.081132
      px      :     0.000968
      py      :     0.004210
      dz2     :     0.010089  d :     0.028980
      dxz     :     0.004361
      dyz     :     0.013462
      dx2y2   :     0.000266
      dxy     :     0.000802
      f0      :    -0.000000  f :     0.000321
      f+1     :     0.000063
      f-1     :     0.000188
      f+2     :     0.000011
      f-2     :     0.000030
      f+3     :     0.000026
      f-3     :     0.000003


                      *****************************
                      * MAYER POPULATION ANALYSIS *
                      *****************************

  NA   - Mulliken gross atomic population
  ZA   - Total nuclear charge
  QA   - Mulliken gross atomic charge
  VA   - Mayer's total valence
  BVA  - Mayer's bonded valence
  FA   - Mayer's free valence

  ATOM       NA         ZA         QA         VA         BVA        FA
  0 C      5.4348     6.0000     0.5652     3.7970     3.1761     0.6209
  1 F      9.1884     9.0000    -0.1884     1.0360     1.0318     0.0041
  2 F      9.1884     9.0000    -0.1884     1.0357     1.0316     0.0041
  3 F      9.1884     9.0000    -0.1884     1.0357     1.0316     0.0041

  Mayer bond orders larger than 0.100000
B(  0-C ,  1-F ) :   1.0588 B(  0-C ,  2-F ) :   1.0586 B(  0-C ,  3-F ) :   1.0586 


-------
TIMINGS
-------

Total SCF time: 0 days 0 hours 0 min 13 sec 

Total time                  ....      13.101 sec
Sum of individual times     ....      12.131 sec  ( 92.6%)

Fock matrix formation       ....       9.760 sec  ( 74.5%)
  Split-RI-J                ....       2.321 sec  ( 23.8% of F)
  Chain of spheres X        ....       2.888 sec  ( 29.6% of F)
  XC integration            ....       1.900 sec  ( 19.5% of F)
    Basis function eval.    ....       0.109 sec  (  5.8% of XC)
    Density eval.           ....       0.146 sec  (  7.7% of XC)
    XC-Functional eval.     ....       0.060 sec  (  3.2% of XC)
    XC-Potential eval.      ....       0.293 sec  ( 15.4% of XC)
Diagonalization             ....       0.325 sec  (  2.5%)
Density matrix formation    ....       0.015 sec  (  0.1%)
Population analysis         ....       0.120 sec  (  0.9%)
Initial guess               ....       0.915 sec  (  7.0%)
Orbital Transformation      ....       0.000 sec  (  0.0%)
Orbital Orthonormalization  ....       0.000 sec  (  0.0%)
DIIS solution               ....       0.438 sec  (  3.3%)
Grid generation             ....       0.559 sec  (  4.3%)

Maximum memory used throughout the entire SCF-calculation: 63.2 MB


-------------------------------------------------------------------------------
                          DFT DISPERSION CORRECTION                            
                                                                               
                              DFTD3 V3.1  Rev 1                                
                              USING zero damping                               
-------------------------------------------------------------------------------
The omegaB97X-D3 functional is recognized. Fit by Chai et al.
Active option DFTDOPT                   ...         3   

molecular C6(AA) [au] = 165.565823 


            DFT-D V3
 parameters
 s6 scaling factor         :     1.0000 
 rs6 scaling factor        :     1.2810 
 s8 scaling factor         :     1.0000 
 rs8 scaling factor        :     1.0940 
 Damping factor alpha6     :    14.0000 
 Damping factor alpha8     :    16.0000 
 ad hoc parameters k1-k3   :    16.0000     1.3333    -4.0000 

 Edisp/kcal,au: -0.030688057920  -0.000048904528 
 E6   /kcal   :  -0.003893576 
 E8   /kcal   :  -0.026794481 
 % E8         :  87.312405102 

-------------------------   ----------------
Dispersion correction           -0.000048905
-------------------------   ----------------


-------------------------   --------------------
FINAL SINGLE POINT ENERGY      -337.602419800693
-------------------------   --------------------



           ************************************************************
           *        Program running with 18 parallel MPI-processes    *
           *              working on a common directory               *
           ************************************************************
------------------------------------------------------------------------------
                         ORCA SCF GRADIENT CALCULATION
------------------------------------------------------------------------------

 ... reading COSX grid (gridx3)
Gradient of the Kohn-Sham DFT energy:
Kohn-Sham wavefunction type      ... UKS
Hartree-Fock exchange scaling    ...    0.196
Number of operators              ...    2
Number of atoms                  ...    4
Basis set dimensions             ...  157
Integral neglect threshold       ... 2.5e-11
Integral primitive cutoff        ... 2.5e-12
SHARK Integral package           ... ON

Nuc. rep. gradient       (SHARK) ... done (  0.0 sec)
HCore & Overlap gradient (SHARK) ... done (  0.0 sec)
RI-J gradient            (SHARK) ... done (  0.5 sec)
COSX-gradient                    ... done (  0.5 sec)
Exchange-correlation gradient    ... done
Dispersion correction            ... done

------------------
CARTESIAN GRADIENT
------------------

WARNING: THERE ARE 3 CONSTRAINED CARTESIAN COORDINATES
   1   C   :   -0.000107280    0.000000184    0.102475901
   2   F   :   -0.052012962   -0.000000145   -0.034441222
   3   F   :    0.026215424   -0.044637974   -0.033737229
   4   F   :    0.026215371    0.044637733   -0.033737267

Difference to translation invariance:
           :    0.0003105528   -0.0000002021    0.0005601831

Difference to rotation invariance:
           :   -0.0000003640    0.0010872738   -0.0000001557

Norm of the cartesian gradient     ...    0.1484211629
RMS gradient                       ...    0.0428454992
MAX gradient                       ...    0.1024759010

-------
TIMINGS
-------

Total SCF gradient time            ...        1.488 sec

One electron gradient       ....       0.012 sec  (  0.8%)
RI-J Coulomb gradient       ....       0.470 sec  ( 31.6%)
COSX gradient               ....       0.452 sec  ( 30.4%)
XC gradient                 ....       0.186 sec  ( 12.5%)

Maximum memory used throughout the entire SCFGRAD-calculation: 37.2 MB
------------------------------------------------------------------------------
                         ORCA GEOMETRY RELAXATION STEP
------------------------------------------------------------------------------

Reading the OPT-File                    .... done
Getting information on internals        .... done
Copying old internal coords+grads       .... done
Making the new internal coordinates     .... (new redundants).... done
Validating the new internal coordinates .... (new redundants).... done
Calculating the B-matrix                .... done
Calculating the G,G- and P matrices     .... done
Transforming gradient to internals      .... done
Projecting the internal gradient        .... done
Number of atoms                         ....   4
Number of internal coordinates          ....   7
Current Energy                          ....  -337.602419801 Eh
Current gradient norm                   ....     0.148421163 Eh/bohr
Maximum allowed component of the step   ....  0.300
Current trust radius                    ....  0.300
Evaluating the initial hessian          ....  (Almloef) done
Projecting the Hessian                  .... done
Forming the augmented Hessian           .... done
Diagonalizing the augmented Hessian     .... done
Last element of RFO vector              ....  0.997033485
Lowest eigenvalues of augmented Hessian:
 -0.004106131  0.684895726  0.684895726  0.689001857 1000.000000000
Length of the computed step             ....  0.077198028
The final length of the internal step   ....  0.077198028
Converting the step to cartesian space:
 Initial RMS(Int)=    0.0291781118
Transforming coordinates:
 Iter   0:  RMS(Cart)=    0.0204902534 RMS(Int)=    0.0291781121
 Iter   1:  RMS(Cart)=    0.0000000008 RMS(Int)=    0.0000000013
Imposing constraints:
 Iter   0:  RMS(Cart)=    0.0000000017 RMS(Int)=    0.0000000023
CONVERGED
done
Storing new coordinates                 .... done

                                .--------------------.
          ----------------------|Geometry convergence|-------------------------
          Item                value                   Tolerance       Converged
          ---------------------------------------------------------------------
          RMS gradient        0.0201037732            0.0001000000      NO
          MAX gradient        0.0308346653            0.0003000000      NO
          RMS step            0.0291781118            0.0020000000      NO
          MAX step            0.0447526593            0.0040000000      NO
          ........................................................
          Max(Bonds)      0.0237      Max(Angles)    0.00
          Max(Dihed)        0.00      Max(Improp)    0.00
          ---------------------------------------------------------------------

The optimization has not yet converged - more geometry cycles are needed


    ---------------------------------------------------------------------------
                         Redundant Internal Coordinates
                            (Angstroem and degrees)

        Definition                    Value    dE/dq     Step     New-Value
    ----------------------------------------------------------------------------
     1. B(F   1,C   0)                1.3150 -0.030835  0.0237    1.3387   
     2. B(F   2,C   0)                1.3150 -0.030646  0.0235    1.3385   
     3. B(F   3,C   0)                1.3150 -0.030646  0.0235    1.3385   
     4. A(F   2,C   0,F   3)          101.00 -0.091672   -0.00    101.00 C 
     5. A(F   1,C   0,F   2)          101.00 -0.040996    0.00    101.00 C 
     6. A(F   1,C   0,F   3)          101.00 -0.040996    0.00    101.00 C 
     7. I(F   1,F   3,F   2,C   0)     72.54  0.083806   -0.00     72.54   
    ----------------------------------------------------------------------------

         *************************************************************
         *                GEOMETRY OPTIMIZATION CYCLE   2            *
         *************************************************************
---------------------------------
CARTESIAN COORDINATES (ANGSTROEM)
---------------------------------
  C     -0.000043   -0.000000    0.008031
  F      1.192731   -0.000000   -0.599718
  F     -0.596344    1.032848   -0.599696
  F     -0.596344   -1.032848   -0.599696

----------------------------
CARTESIAN COORDINATES (A.U.)
----------------------------
  NO LB      ZA    FRAG     MASS         X           Y           Z
   0 C     6.0000    0    12.011   -0.000082   -0.000000    0.015177
   1 F     9.0000    0    18.998    2.253935   -0.000000   -1.133303
   2 F     9.0000    0    18.998   -1.126926    1.951800   -1.133261
   3 F     9.0000    0    18.998   -1.126926   -1.951800   -1.133261

--------------------------------
INTERNAL COORDINATES (ANGSTROEM)
--------------------------------
 C      0   0   0     0.000000000000     0.00000000     0.00000000
 F      1   0   0     1.338682087343     0.00000000     0.00000000
 F      1   2   0     1.338537258710   100.99999990     0.00000000
 F      1   2   3     1.338537121359   100.99999990   103.63891242

---------------------------
INTERNAL COORDINATES (A.U.)
---------------------------
 C      0   0   0     0.000000000000     0.00000000     0.00000000
 F      1   0   0     2.529742525465     0.00000000     0.00000000
 F      1   2   0     2.529468839012   100.99999990     0.00000000
 F      1   2   3     2.529468579456   100.99999990   103.63891242



           ************************************************************
           *        Program running with 18 parallel MPI-processes    *
           *              working on a common directory               *
           ************************************************************
------------------------------------------------------------------------------
                   ___                                                        
                  /   \      - P O W E R E D   B Y -                         
                 /     \                                                     
                 |  |  |   _    _      __       _____    __    __             
                 |  |  |  | |  | |    /  \     |  _  \  |  |  /  |          
                  \  \/   | |  | |   /    \    | | | |  |  | /  /          
                 / \  \   | |__| |  /  /\  \   | |_| |  |  |/  /          
                |  |  |   |  __  | /  /__\  \  |    /   |      \           
                |  |  |   | |  | | |   __   |  |    \   |  |\   \          
                \     /   | |  | | |  |  |  |  | |\  \  |  | \   \       
                 \___/    |_|  |_| |__|  |__|  |_| \__\ |__|  \__/        
                                                                              
                      - O R C A' S   B I G   F R I E N D -                    
                                      &                                       
                       - I N T E G R A L  F E E D E R -                       
                                                                              
 v1 FN, 2020, v2 2021                                                         
------------------------------------------------------------------------------


Reading SHARK input file /beegfs/scratch/ispackman/PFAS_EPR_calcs/benchmark/JChemEd_CF3_radical/CF3_radical_101.0_degrees_IN-PROGRESS/CF3_radical_101.0_degrees.SHARKINP.tmp ... ok
----------------------
SHARK INTEGRAL PACKAGE
----------------------

Number of atoms                             ...      4
Number of basis functions                   ...    157
Number of shells                            ...     55
Maximum angular momentum                    ...      3
Integral batch strategy                     ... SHARK/LIBINT Hybrid
RI-J (if used) integral strategy            ... SPLIT-RIJ (Revised 2003 algorithm where possible)
Printlevel                                  ...      1
Contraction scheme used                     ... SEGMENTED contraction
Coulomb Range Separation                    ... NOT USED
Exchange Range Separation                   ... Long Range
   Mu parameter                             ...  0.250000
   Scaling (regular/separated)              ...  0.195728  0.804272
Finite Nucleus Model                        ... NOT USED
Auxiliary Coulomb fitting basis             ... AVAILABLE
   # of basis functions in Aux-J            ...    196
   # of shells in Aux-J                     ...     60
   Maximum angular momentum in Aux-J        ...      4
Auxiliary J/K fitting basis                 ... NOT available
Auxiliary Correlation fitting basis         ... NOT available
Auxiliary 'external' fitting basis          ... NOT available
Integral threshold                          ...     2.500000e-11
Primitive cut-off                           ...     2.500000e-12
Primitive pair pre-selection threshold      ...     2.500000e-12

Calculating pre-screening integrals         ... done (  0.0 sec) Dimension = 55
Organizing shell pair data                  ... done (  0.0 sec)
Shell pair information
Total number of shell pairs                 ...      1540
Shell pairs after pre-screening             ...      1504
Total number of primitive shell pairs       ...      4274
Primitive shell pairs kept                  ...      3539
          la=0 lb=0:    282 shell pairs
          la=1 lb=0:    354 shell pairs
          la=1 lb=1:    120 shell pairs
          la=2 lb=0:    276 shell pairs
          la=2 lb=1:    180 shell pairs
          la=2 lb=2:     78 shell pairs
          la=3 lb=0:     96 shell pairs
          la=3 lb=1:     60 shell pairs
          la=3 lb=2:     48 shell pairs
          la=3 lb=3:     10 shell pairs

Calculating one electron integrals          ... done (  0.0 sec)
Calculating RI/J V-Matrix + Cholesky decomp.... done (  0.0 sec)
Calculating Nuclear repulsion               ... done (  0.0 sec) ENN=    126.290735935290 Eh

SHARK setup successfully completed in   0.3 seconds

Maximum memory used throughout the entire GTOINT-calculation: 15.2 MB


           ************************************************************
           *        Program running with 18 parallel MPI-processes    *
           *              working on a common directory               *
           ************************************************************

Diagonalization of the overlap matrix:
Smallest eigenvalue                        ... 4.027e-04
Time for diagonalization                   ...    0.008 sec
Threshold for overlap eigenvalues          ... 1.000e-08
Number of eigenvalues below threshold      ... 0
Time for construction of square roots      ...    0.021 sec
Total time needed                          ...    0.030 sec

-------------------
DFT GRID GENERATION
-------------------

General Integration Accuracy     IntAcc      ... 4.388
Radial Grid Type                 RadialGrid  ... OptM3 with GC (2021)
Angular Grid (max. ang.)         AngularGrid ... 4 (Lebedev-302)
Angular grid pruning method      GridPruning ... 4 (adaptive)
Weight generation scheme         WeightScheme... Becke
Basis function cutoff            BFCut       ... 1.0000e-11
Integration weight cutoff        WCut        ... 1.0000e-14
Angular grids for H and He will be reduced by one unit
Partially contracted basis set               ... off
Rotationally invariant grid construction     ... off

Total number of grid points                  ...    25785
Total number of batches                      ...      405
Average number of points per batch           ...       63
Average number of grid points per atom       ...     6446
Time for grid setup =    0.159 sec

--------------------
COSX GRID GENERATION
--------------------

GRIDX 1
-------
General Integration Accuracy     IntAcc      ... 3.816
Radial Grid Type                 RadialGrid  ... OptM3 with GC (2021)
Angular Grid (max. ang.)         AngularGrid ... 1 (Lebedev-50)
Angular grid pruning method      GridPruning ... 4 (adaptive)
Weight generation scheme         WeightScheme... Becke
Basis function cutoff            BFCut       ... 1.0000e-11
Integration weight cutoff        WCut        ... 1.0000e-14
Angular grids for H and He will be reduced by one unit
Partially contracted basis set               ... on
Rotationally invariant grid construction     ... off

Total number of grid points                  ...     3272
Total number of batches                      ...       53
Average number of points per batch           ...       61
Average number of grid points per atom       ...      818
UseSFitting                                  ... on

GRIDX 2
-------
General Integration Accuracy     IntAcc      ... 4.020
Radial Grid Type                 RadialGrid  ... OptM3 with GC (2021)
Angular Grid (max. ang.)         AngularGrid ... 2 (Lebedev-110)
Angular grid pruning method      GridPruning ... 4 (adaptive)
Weight generation scheme         WeightScheme... Becke
Basis function cutoff            BFCut       ... 1.0000e-11
Integration weight cutoff        WCut        ... 1.0000e-14
Angular grids for H and He will be reduced by one unit
Partially contracted basis set               ... on
Rotationally invariant grid construction     ... off

Total number of grid points                  ...     9121
Total number of batches                      ...      145
Average number of points per batch           ...       62
Average number of grid points per atom       ...     2280
UseSFitting                                  ... on

GRIDX 3
-------
General Integration Accuracy     IntAcc      ... 4.338
Radial Grid Type                 RadialGrid  ... OptM3 with GC (2021)
Angular Grid (max. ang.)         AngularGrid ... 3 (Lebedev-194)
Angular grid pruning method      GridPruning ... 4 (adaptive)
Weight generation scheme         WeightScheme... Becke
Basis function cutoff            BFCut       ... 1.0000e-11
Integration weight cutoff        WCut        ... 1.0000e-14
Angular grids for H and He will be reduced by one unit
Partially contracted basis set               ... on
Rotationally invariant grid construction     ... off

Total number of grid points                  ...    19678
Total number of batches                      ...      309
Average number of points per batch           ...       63
Average number of grid points per atom       ...     4920
UseSFitting                                  ... on

Time for X-Grid setup             =    0.466 sec

--------------
[...]
  VA   - Mayer's total valence
  BVA  - Mayer's bonded valence
  FA   - Mayer's free valence

  ATOM       NA         ZA         QA         VA         BVA        FA
  0 C      5.4596     6.0000     0.5404     3.7871     3.1744     0.6127
  1 F      9.1802     9.0000    -0.1802     1.0443     1.0396     0.0048
  2 F      9.1801     9.0000    -0.1801     1.0443     1.0395     0.0047
  3 F      9.1801     9.0000    -0.1801     1.0443     1.0395     0.0047

  Mayer bond orders larger than 0.100000
B(  0-C ,  1-F ) :   1.0581 B(  0-C ,  2-F ) :   1.0582 B(  0-C ,  3-F ) :   1.0582 


-------
TIMINGS
-------

Total SCF time: 0 days 0 hours 0 min 7 sec 

Total time                  ....       7.078 sec
Sum of individual times     ....       6.349 sec  ( 89.7%)

Fock matrix formation       ....       5.190 sec  ( 73.3%)
  Split-RI-J                ....       0.692 sec  ( 13.3% of F)
  Chain of spheres X        ....       2.010 sec  ( 38.7% of F)
  XC integration            ....       1.051 sec  ( 20.2% of F)
    Basis function eval.    ....       0.062 sec  (  5.9% of XC)
    Density eval.           ....       0.078 sec  (  7.5% of XC)
    XC-Functional eval.     ....       0.034 sec  (  3.2% of XC)
    XC-Potential eval.      ....       0.127 sec  ( 12.1% of XC)
Diagonalization             ....       0.190 sec  (  2.7%)
Density matrix formation    ....       0.009 sec  (  0.1%)
Population analysis         ....       0.134 sec  (  1.9%)
Initial guess               ....       0.019 sec  (  0.3%)
Orbital Transformation      ....       0.000 sec  (  0.0%)
Orbital Orthonormalization  ....       0.009 sec  (  0.1%)
DIIS solution               ....       0.248 sec  (  3.5%)
Grid generation             ....       0.558 sec  (  7.9%)

Maximum memory used throughout the entire SCF-calculation: 63.2 MB


-------------------------------------------------------------------------------
                          DFT DISPERSION CORRECTION                            
                                                                               
                              DFTD3 V3.1  Rev 1                                
                              USING zero damping                               
-------------------------------------------------------------------------------
The omegaB97X-D3 functional is recognized. Fit by Chai et al.
Active option DFTDOPT                   ...         3   

molecular C6(AA) [au] = 165.640504 


            DFT-D V3
 parameters
 s6 scaling factor         :     1.0000 
 rs6 scaling factor        :     1.2810 
 s8 scaling factor         :     1.0000 
 rs8 scaling factor        :     1.0940 
 Damping factor alpha6     :    14.0000 
 Damping factor alpha8     :    16.0000 
 ad hoc parameters k1-k3   :    16.0000     1.3333    -4.0000 

 Edisp/kcal,au: -0.036217522101  -0.000057716289 
 E6   /kcal   :  -0.004602217 
 E8   /kcal   :  -0.031615305 
 % E8         :  87.292844302 

-------------------------   ----------------
Dispersion correction           -0.000057716
-------------------------   ----------------


-------------------------   --------------------
FINAL SINGLE POINT ENERGY      -337.604710184767
-------------------------   --------------------

                                *** OPTIMIZATION RUN DONE ***

                            ***************************************
                            *     ORCA property calculations      *
                            ***************************************

                                    ---------------------
                                    Active property flags
                                    ---------------------
   (+) Dipole Moment


------------------------------------------------------------------------------
                       ORCA ELECTRIC PROPERTIES CALCULATION
------------------------------------------------------------------------------

Dipole Moment Calculation                       ... on
Quadrupole Moment Calculation                   ... off
Polarizability Calculation                      ... off
GBWName                                         ... /beegfs/scratch/ispackman/PFAS_EPR_calcs/benchmark/JChemEd_CF3_radical/CF3_radical_101.0_degrees_IN-PROGRESS/CF3_radical_101.0_degrees.gbw
Electron density                                ... /beegfs/scratch/ispackman/PFAS_EPR_calcs/benchmark/JChemEd_CF3_radical/CF3_radical_101.0_degrees_IN-PROGRESS/CF3_radical_101.0_degrees.scfp
The origin for moment calculation is the CENTER OF MASS  = ( 0.000017,  0.000000 -0.933646)

-------------
DIPOLE MOMENT
-------------
                                X             Y             Z
Electronic contribution:     -0.00059      -0.00000       0.09775
Nuclear contribution   :     -0.00006      -0.00000       0.29494
                        -----------------------------------------
Total Dipole Moment    :     -0.00065      -0.00000       0.39270
                        -----------------------------------------
Magnitude (a.u.)       :      0.39270
Magnitude (Debye)      :      0.99815



--------------------
Rotational spectrum 
--------------------
 
Rotational constants in cm-1:     0.379095     0.378991     0.206652 
Rotational constants in MHz : 11364.988432 11361.877637  6195.278417 

 Dipole components along the rotational axes: 
x,y,z [a.u.] :    -0.000670     0.000001     0.392695 
x,y,z [Debye]:    -0.001703     0.000004     0.998152 

 


           ************************************************************
           *        Program running with 18 parallel MPI-processes    *
           *              working on a common directory               *
           ************************************************************

-------------------------------------------------------------------------------
                               ORCA SCF HESSIAN
-------------------------------------------------------------------------------

                   --------- SHARK INITIALIZATION DONE ---------

Hessian of the Kohn-Sham DFT energy:
Kohn-Sham wavefunction type                      ... UKS
Hartree-Fock exchange scaling                    ...    0.196
Number of operators                              ...    2
Number of atoms                                  ...    4
Basis set dimensions                             ...  157
Integral neglect threshold                       ... 2.5e-11
Integral primitive cutoff                        ... 2.5e-12

Setting up DFT Hessian calculations              ... 

HESS GRID
---------

General Integration Accuracy     IntAcc      ... 4.629
Radial Grid Type                 RadialGrid  ... OptM3 with GC (2021)
Angular Grid (max. ang.)         AngularGrid ... 5 (Lebedev-434)
Angular grid pruning method      GridPruning ... 4 (adaptive)
Weight generation scheme         WeightScheme... Becke
Basis function cutoff            BFCut       ... 1.0000e-11
Integration weight cutoff        WCut        ... 1.0000e-14
Angular grids for H and He will be reduced by one unit
Partially contracted basis set               ... off
Rotationally invariant grid construction     ... off

Total number of grid points                  ...    39971
Total number of batches                      ...      626
Average number of points per batch           ...       63
Average number of grid points per atom       ...     9993

Building densities                               ... done   (      0.0 sec)
Calculating rho(r) on the grid                   ... done   (      0.1 sec)
Building xc-kernel on the grid                   ... done   (      0.1 sec)
                                                     done   (      0.6 sec)

Nuclear repulsion Hessian  (SHARK)               ... done   (      0.0 sec)

----------------------------------------------
Forming right-hand sides of CP-SCF equations     ...
----------------------------------------------
One electron integral derivatives  (SHARK)       ... done   (      0.0 sec)
Transforming the overlap derivative matrices     ... done   (      0.0 sec)
Making the Q(x) pseudodensities                  ... done   (      0.0 sec)
Adding the E*S(x)*S(y) terms to the Hessian      ... done   (      0.0 sec)
Calculating energy weighted overlap derivatives  ... done   (      0.0 sec)
Two electron integral derivatives (SHARK-RI)     ... done   (      2.5 sec)
Exchange-correlation integral derivatives        ... done   (      2.3 sec)
tr(F(y)Q(x)) contribution to the Hessian         ... done   (      0.0 sec)
Response fock operator R(S(x)) (SHARK-RIJCOSX)   ... done   (      0.9 sec)
XC Response fock operator R(S(x))                ... done   (      0.5 sec)
tr(F(y)S(x)) contribution to the Hessian         ... done   (      0.0 sec)
Transforming and finalizing RHSs                 ... done   (      0.0 sec)

----------------------------------------------
Solving the CP-SCF equations (RIJCOSX)           ...
----------------------------------------------
     CP-SCF ITERATION   0:   1.5985e-01 (   0.5 sec   0/ 12 done)
     CP-SCF ITERATION   1:   5.1562e-02 (   0.5 sec   0/ 12 done)
     CP-SCF ITERATION   2:   1.8902e-02 (   0.5 sec   0/ 12 done)
     CP-SCF ITERATION   3:   5.4507e-03 (   0.4 sec   0/ 12 done)
     CP-SCF ITERATION   4:   1.9998e-03 (   0.4 sec   0/ 12 done)
     CP-SCF ITERATION   5:   8.2744e-04 (   0.4 sec   1/ 12 done)
     CP-SCF ITERATION   6:   2.4470e-04 (   0.4 sec   3/ 12 done)
     CP-SCF ITERATION   7:   5.5549e-05 (   0.4 sec  12/ 12 done)
                    *** THE CP-SCF HAS CONVERGED ***

                                                 ... done   (      3.8 sec)
Forming perturbed density Hessian contributions  ... done   (      0.0 sec)
2nd integral derivative contribs (SHARK-RI)      ... done   (      6.7 sec)
Exchange-correlation Hessian                     ... done   (      0.9 sec)
Dispersion correction in the Hessian             ... done   (      0.1 sec)
Dipole derivatives                               ... (center of mass:  0.000017,  0.000000 -0.933646)done   (      0.1 sec)

Total SCF Hessian time: 0 days 0 hours 0 min 19 sec 

Writing the Hessian file to the disk             ... done


Maximum memory used throughout the entire SCFHESS-calculation: 145.4 MB

-----------------------
VIBRATIONAL FREQUENCIES
-----------------------

Scaling factor for frequencies =  1.000000000  (already applied!)

   0:         0.00 cm**-1
   1:         0.00 cm**-1
   2:         0.00 cm**-1
   3:         0.00 cm**-1
   4:         0.00 cm**-1
   5:         0.00 cm**-1
   6:       574.18 cm**-1
   7:       575.00 cm**-1
   8:       773.58 cm**-1
   9:      1088.58 cm**-1
  10:      1089.60 cm**-1
  11:      1102.08 cm**-1


------------
NORMAL MODES
------------

These modes are the Cartesian displacements weighted by the diagonal matrix
M(i,i)=1/sqrt(m[i]) where m[i] is the mass of the displaced atom
Thus, these vectors are normalized but *not* orthogonal

                  0          1          2          3          4          5    
      0       0.000000   0.000000   0.000000   0.000000   0.000000   0.000000
      1       0.000000   0.000000   0.000000   0.000000   0.000000   0.000000
      2       0.000000   0.000000   0.000000   0.000000   0.000000   0.000000
      3       0.000000   0.000000   0.000000   0.000000   0.000000   0.000000
      4       0.000000   0.000000   0.000000   0.000000   0.000000   0.000000
      5       0.000000   0.000000   0.000000   0.000000   0.000000   0.000000
      6       0.000000   0.000000   0.000000   0.000000   0.000000   0.000000
      7       0.000000   0.000000   0.000000   0.000000   0.000000   0.000000
      8       0.000000   0.000000   0.000000   0.000000   0.000000   0.000000
      9       0.000000   0.000000   0.000000   0.000000   0.000000   0.000000
     10       0.000000   0.000000   0.000000   0.000000   0.000000   0.000000
     11       0.000000   0.000000   0.000000   0.000000   0.000000   0.000000
                  6          7          8          9         10         11    
      0      -0.302988  -0.000006  -0.000342   0.885110  -0.000616  -0.037888
      1       0.000007  -0.302480   0.000000  -0.000618  -0.885943  -0.000036
      2      -0.001071  -0.000000  -0.569610  -0.034640   0.000056  -0.834328
      3      -0.480243  -0.000010   0.459898  -0.334089   0.000243  -0.250096
      4      -0.000013   0.608364   0.000000   0.000035   0.049808   0.000002
      5      -0.064828  -0.000001   0.119931   0.197383  -0.000144   0.167662
      6       0.335890   0.471742  -0.229841  -0.112832  -0.118468   0.137020
      7       0.471999  -0.208554   0.396960   0.109681   0.255086  -0.233995
      8       0.032754  -0.056276   0.120095  -0.087856  -0.164737   0.179903
      9       0.335909  -0.471728  -0.229841  -0.112667   0.118615   0.137030
     10      -0.471991  -0.208574  -0.396960  -0.109325   0.255221   0.234015
     11       0.032751   0.056277   0.120095  -0.087626   0.164845   0.179917


-----------
IR SPECTRUM
-----------

 Mode   freq       eps      Int      T**2         TX        TY        TZ
       cm**-1   L/(mol*cm) km/mol    a.u.
----------------------------------------------------------------------------
  6:    574.18   0.000295    1.49  0.000161  (-0.012671  0.000000 -0.000074)
  7:    575.00   0.000292    1.48  0.000158  (-0.000000 -0.012587 -0.000000)
  8:    773.58   0.002577   13.02  0.001040  (-0.000104 -0.000000 -0.032243)
  9:   1088.58   0.061799  312.31  0.017716  ( 0.133084 -0.000093 -0.002173)
 10:   1089.60   0.061849  312.56  0.017714  (-0.000093 -0.133093  0.000004)
 11:   1102.08   0.009422   47.61  0.002668  (-0.005538 -0.000005 -0.051353)

* The epsilon (eps) is given for a Dirac delta lineshape.
** The dipole moment derivative (T) already includes vibrational overlap.

The first frequency considered to be a vibration is 6
The total number of vibrations considered is 6


--------------------------
THERMOCHEMISTRY AT 298.15K
--------------------------

Temperature         ... 298.15 K
Pressure            ... 1.00 atm
Total Mass          ... 69.00 AMU

Throughout the following assumptions are being made:
  (1) The electronic state is orbitally nondegenerate
      but the spin degeneracy is treated
  (2) There are no thermally accessible electronically excited states
  (3) Hindered rotations indicated by low frequency modes are not
      treated as such but are treated as vibrations and this may
      cause some error
  (4) All equations used are the standard statistical mechanics
      equations for an ideal gas
  (5) All vibrations are strictly harmonic

freq.     574.18  E(vib)   ...       0.11 
freq.     575.00  E(vib)   ...       0.11 
freq.     773.58  E(vib)   ...       0.05 
freq.    1088.58  E(vib)   ...       0.02 
freq.    1089.60  E(vib)   ...       0.02 
freq.    1102.08  E(vib)   ...       0.02 

------------
INNER ENERGY
------------

The inner energy is: U= E(el) + E(ZPE) + E(vib) + E(rot) + E(trans)
    E(el)   - is the total energy from the electronic structure calculation
              = E(kin-el) + E(nuc-el) + E(el-el) + E(nuc-nuc)
    E(ZPE)  - the the zero temperature vibrational energy from the frequency calculation
    E(vib)  - the the finite temperature correction to E(ZPE) due to population
              of excited vibrational states
    E(rot)  - is the rotational thermal energy
    E(trans)- is the translational thermal energy

Summary of contributions to the inner energy U:
Electronic energy                ...   -337.60471018 Eh
Zero point energy                ...      0.01185335 Eh       7.44 kcal/mol
Thermal vibrational correction   ...      0.00051221 Eh       0.32 kcal/mol
Thermal rotational correction    ...      0.00141627 Eh       0.89 kcal/mol
Thermal translational correction ...      0.00141627 Eh       0.89 kcal/mol
-----------------------------------------------------------------------
Total thermal energy                   -337.58951208 Eh


Summary of corrections to the electronic energy:
(perhaps to be used in another calculation)
Total thermal correction                  0.00334475 Eh       2.10 kcal/mol
Non-thermal (ZPE) correction              0.01185335 Eh       7.44 kcal/mol
-----------------------------------------------------------------------
Total correction                          0.01519810 Eh       9.54 kcal/mol


--------
ENTHALPY
--------

The enthalpy is H = U + kB*T
                kB is Boltzmann's constant
Total free energy                 ...   -337.58951208 Eh 
Thermal Enthalpy correction       ...      0.00094421 Eh       0.59 kcal/mol
-----------------------------------------------------------------------
Total Enthalpy                    ...   -337.58856787 Eh


Note: Rotational entropy computed according to Herzberg 
Infrared and Raman Spectra, Chapter V,1, Van Nostrand Reinhold, 1945 
Point Group:  Cs, Symmetry Number:   1  
Rotational constants in cm-1:     0.379095     0.378991     0.206652 

Vibrational entropy computed according to the QRRHO of S. Grimme
Chem.Eur.J. 2012 18 9955


-------
ENTROPY
-------

The entropy contributions are T*S = T*(S(el)+S(vib)+S(rot)+S(trans))
     S(el)   - electronic entropy
     S(vib)  - vibrational entropy
     S(rot)  - rotational entropy
     S(trans)- translational entropy
The entropies will be listed as multiplied by the temperature to get
units of energy

Electronic entropy                ...      0.00065446 Eh      0.41 kcal/mol
Vibrational entropy               ...      0.00067209 Eh      0.42 kcal/mol
Rotational entropy                ...      0.01117112 Eh      7.01 kcal/mol
Translational entropy             ...      0.01834582 Eh     11.51 kcal/mol
-----------------------------------------------------------------------
Final entropy term                ...      0.03084349 Eh     19.35 kcal/mol

In case the symmetry of your molecule has not been determined correctly
or in case you have a reason to use a different symmetry number we print 
out the resulting rotational entropy values for sn=1,12 :
 --------------------------------------------------------
|  sn= 1 | S(rot)=       0.01117112 Eh      7.01 kcal/mol|
|  sn= 2 | S(rot)=       0.01051666 Eh      6.60 kcal/mol|
|  sn= 3 | S(rot)=       0.01013383 Eh      6.36 kcal/mol|
|  sn= 4 | S(rot)=       0.00986221 Eh      6.19 kcal/mol|
|  sn= 5 | S(rot)=       0.00965152 Eh      6.06 kcal/mol|
|  sn= 6 | S(rot)=       0.00947937 Eh      5.95 kcal/mol|
|  sn= 7 | S(rot)=       0.00933383 Eh      5.86 kcal/mol|
|  sn= 8 | S(rot)=       0.00920775 Eh      5.78 kcal/mol|
|  sn= 9 | S(rot)=       0.00909654 Eh      5.71 kcal/mol|
|  sn=10 | S(rot)=       0.00899706 Eh      5.65 kcal/mol|
|  sn=11 | S(rot)=       0.00890707 Eh      5.59 kcal/mol|
|  sn=12 | S(rot)=       0.00882492 Eh      5.54 kcal/mol|
 --------------------------------------------------------


-------------------
GIBBS FREE ENERGY
-------------------

The Gibbs free energy is G = H - T*S

Total enthalpy                    ...   -337.58856787 Eh 
Total entropy correction          ...     -0.03084349 Eh    -19.35 kcal/mol
-----------------------------------------------------------------------
Final Gibbs free energy         ...   -337.61941136 Eh

For completeness - the Gibbs free energy minus the electronic energy
G-E(el)                           ...     -0.01470118 Eh     -9.23 kcal/mol


Timings for individual modules:

Sum of individual times         ...      137.766 sec (=   2.296 min)
GTO integral calculation        ...       51.794 sec (=   0.863 min)  37.6 %
SCF iterations                  ...       51.896 sec (=   0.865 min)  37.7 %
SCF Gradient evaluation         ...       11.767 sec (=   0.196 min)   8.5 %
Geometry relaxation             ...        0.171 sec (=   0.003 min)   0.1 %
Analytical frequency calculation...       22.139 sec (=   0.369 min)  16.1 %
                             ****ORCA TERMINATED NORMALLY****
TOTAL RUN TIME: 0 days 0 hours 2 minutes 29 seconds 560 msec

slurmID:    32260042
totalRuntime[s]:    149.602161529
