
                                 *****************
                                 * O   R   C   A *
                                 *****************

                                            #,                                       
                                            ###                                      
                                            ####                                     
                                            #####                                    
                                            ######                                   
                                           ########,                                 
                                     ,,################,,,,,                         
                               ,,#################################,,                 
                          ,,##########################################,,             
                       ,#########################################, ''#####,          
                    ,#############################################,,   '####,        
                  ,##################################################,,,,####,       
                ,###########''''           ''''###############################       
              ,#####''   ,,,,##########,,,,          '''####'''          '####       
            ,##' ,,,,###########################,,,                        '##       
           ' ,,###''''                  '''############,,,                           
         ,,##''                                '''############,,,,        ,,,,,,###''
      ,#''                                            '''#######################'''  
     '                                                          ''''####''''         
             ,#######,   #######,   ,#######,      ##                                
            ,#'     '#,  ##    ##  ,#'     '#,    #''#        ######   ,####,        
            ##       ##  ##   ,#'  ##            #'  '#       #        #'  '#        
            ##       ##  #######   ##           ,######,      #####,   #    #        
            '#,     ,#'  ##    ##  '#,     ,#' ,#      #,         ##   #,  ,#        
             '#######'   ##     ##  '#######'  #'      '#     #####' # '####'        



                  #######################################################
                  #                        -***-                        #
                  #          Department of theory and spectroscopy      #
                  #    Directorship and core code : Frank Neese         #
                  #        Max Planck Institute fuer Kohlenforschung    #
                  #                Kaiser Wilhelm Platz 1               #
                  #                 D-45470 Muelheim/Ruhr               #
                  #                      Germany                        #
                  #                                                     #
                  #                  All rights reserved                #
                  #                        -***-                        #
                  #######################################################


                         Program Version 5.0.4 -  RELEASE  -


 With contributions from (in alphabetic order):
   Daniel Aravena         : Magnetic Suceptibility
   Michael Atanasov       : Ab Initio Ligand Field Theory (pilot matlab implementation)
   Alexander A. Auer      : GIAO ZORA, VPT2 properties, NMR spectrum
   Ute Becker             : Parallelization
   Giovanni Bistoni       : ED, misc. LED, open-shell LED, HFLD
   Martin Brehm           : Molecular dynamics
   Dmytro Bykov           : SCF Hessian
   Vijay G. Chilkuri      : MRCI spin determinant printing, contributions to CSF-ICE
   Dipayan Datta          : RHF DLPNO-CCSD density
   Achintya Kumar Dutta   : EOM-CC, STEOM-CC
   Dmitry Ganyushin       : Spin-Orbit,Spin-Spin,Magnetic field MRCI
   Miquel Garcia          : C-PCM and meta-GGA Hessian, CC/C-PCM, Gaussian charge scheme
   Yang Guo               : DLPNO-NEVPT2, F12-NEVPT2, CIM, IAO-localization
   Andreas Hansen         : Spin unrestricted coupled pair/coupled cluster methods
   Benjamin Helmich-Paris : MC-RPA, TRAH-SCF, COSX integrals
   Lee Huntington         : MR-EOM, pCC
   Robert Izsak           : Overlap fitted RIJCOSX, COSX-SCS-MP3, EOM
   Marcus Kettner         : VPT2
   Christian Kollmar      : KDIIS, OOCD, Brueckner-CCSD(T), CCSD density, CASPT2, CASPT2-K
   Simone Kossmann        : Meta GGA functionals, TD-DFT gradient, OOMP2, MP2 Hessian
   Martin Krupicka        : Initial AUTO-CI
   Lucas Lang             : DCDCAS
   Marvin Lechner         : AUTO-CI (C++ implementation), FIC-MRCC
   Dagmar Lenk            : GEPOL surface, SMD
   Dimitrios Liakos       : Extrapolation schemes; Compound Job, initial MDCI parallelization
   Dimitrios Manganas     : Further ROCIS development; embedding schemes
   Dimitrios Pantazis     : SARC Basis sets
   Anastasios Papadopoulos: AUTO-CI, single reference methods and gradients
   Taras Petrenko         : DFT Hessian,TD-DFT gradient, ASA, ECA, R-Raman, ABS, FL, XAS/XES, NRVS
   Peter Pinski           : DLPNO-MP2, DLPNO-MP2 Gradient
   Christoph Reimann      : Effective Core Potentials
   Marius Retegan         : Local ZFS, SOC
   Christoph Riplinger    : Optimizer, TS searches, QM/MM, DLPNO-CCSD(T), (RO)-DLPNO pert. Triples
   Tobias Risthaus        : Range-separated hybrids, TD-DFT gradient, RPA, STAB
   Michael Roemelt        : Original ROCIS implementation
   Masaaki Saitow         : Open-shell DLPNO-CCSD energy and density
   Barbara Sandhoefer     : DKH picture change effects
   Avijit Sen             : IP-ROCIS
   Kantharuban Sivalingam : CASSCF convergence, NEVPT2, FIC-MRCI
   Bernardo de Souza      : ESD, SOC TD-DFT
   Georgi Stoychev        : AutoAux, RI-MP2 NMR, DLPNO-MP2 response
   Willem Van den Heuvel  : Paramagnetic NMR
   Boris Wezisla          : Elementary symmetry handling
   Frank Wennmohs         : Technical directorship


 We gratefully acknowledge several colleagues who have allowed us to
 interface, adapt or use parts of their codes:
   Stefan Grimme, W. Hujo, H. Kruse, P. Pracht,  : VdW corrections, initial TS optimization,
                  C. Bannwarth, S. Ehlert          DFT functionals, gCP, sTDA/sTD-DF
   Ed Valeev, F. Pavosevic, A. Kumar             : LibInt (2-el integral package), F12 methods
   Garnet Chan, S. Sharma, J. Yang, R. Olivares  : DMRG
   Ulf Ekstrom                                   : XCFun DFT Library
   Mihaly Kallay                                 : mrcc  (arbitrary order and MRCC methods)
   Jiri Pittner, Ondrej Demel                    : Mk-CCSD
   Frank Weinhold                                : gennbo (NPA and NBO analysis)
   Christopher J. Cramer and Donald G. Truhlar   : smd solvation model
   Lars Goerigk                                  : TD-DFT with DH, B97 family of functionals
   V. Asgeirsson, H. Jonsson                     : NEB implementation
   FAccTs GmbH                                   : IRC, NEB, NEB-TS, DLPNO-Multilevel, CI-OPT
                                                   MM, QMMM, 2- and 3-layer-ONIOM, Crystal-QMMM,
                                                   LR-CPCM, SF, NACMEs, symmetry and pop. for TD-DFT,
                                                   nearIR, NL-DFT gradient (VV10), updates on ESD,
                                                   ML-optimized integration grids
   S Lehtola, MJT Oliveira, MAL Marques          : LibXC Library
   Liviu Ungur et al                             : ANISO software


 Your calculation uses the libint2 library for the computation of 2-el integrals
 For citations please refer to: http://libint.valeyev.net

 Your ORCA version has been built with support for libXC version: 5.1.0
 For citations please refer to: https://tddft.org/programs/libxc/

 This ORCA versions uses:
   CBLAS   interface :  Fast vector & matrix operations
   LAPACKE interface :  Fast linear algebra routines
   SCALAPACK package :  Parallel linear algebra routines
   Shared memory     :  Shared parallel matrices
   BLAS/LAPACK       :  OpenBLAS 0.3.15  USE64BITINT DYNAMIC_ARCH NO_AFFINITY SkylakeX SINGLE_THREADED
        Core in use  :  SkylakeX
   Copyright (c) 2011-2014, The OpenBLAS Project


Your calculation utilizes the atom-pairwise dispersion correction
with the zero-damping scheme (D30)
Cite in your paper:
S.Grimme, J.Antony, S.Ehrlich and H.Krieg, J.Chem.Phys., 132, (2010), 154104 
   

XCFun DFT library Copyright 2009-2010 Ulf Ekstrom and contributors.
See http://admol.org/xcfun for more information.
This is free software; see the source code for copying conditions.
There is ABSOLUTELY NO WARRANTY; not even for MERCHANTABILITY or FITNESS FOR A PARTICULAR PURPOSE.
For details see the documentation.
Scientific users of this library should cite U. Ekstrom, L. Visscher, R. Bast, A. J. Thorvaldsen and K. Ruud;
J.Chem.Theor.Comp. 2010, DOI: 10.1021/ct100117s
XCFun Version 0.99 

================================================================================

----- Orbital basis set information -----
Your calculation utilizes the basis: def2-TZVPD
   F. Weigend and R. Ahlrichs, Phys. Chem. Chem. Phys. 7, 3297 (2005).
   D. Rappoport and F. Furche, J. Chem. Phys. 133 134105 (2010).

----- AuxJ basis set information -----
Your calculation utilizes the auxiliary basis: def2/J
   F. Weigend, Phys. Chem. Chem. Phys. 8, 1057 (2006).

================================================================================
                                        WARNINGS
                       Please study these warnings very carefully!
================================================================================


WARNING: Geometry Optimization
  ===> : Switching off AutoStart
         For restart on a previous wavefunction, please use MOREAD

INFO   : the flag for use of the SHARK integral package has been found!

================================================================================
                                       INPUT FILE
================================================================================
NAME = /beegfs/scratch/ispackman/PFAS_EPR_calcs/benchmark/JChemEd_CF3_radical/CF3_radical_95.5_degrees_IN-PROGRESS/CF3_radical_95.5_degrees.inp
|  1> ! UKS TightSCF wB97x-D3 def2-TZVPD xyzfile opt freq
|  2> 
|  3> # CF3 radical 95.5 degrees fixed
|  4> 
|  5> %maxcore 1000
|  6> %pal
|  7> nprocs 18
|  8> end
|  9> 
| 10> %geom Constraints
| 11>         { A * 0 * C }
| 12>     end
| 13> end
| 14> * xyz 0 2
| 15> C 0.00 0.00 0.00
| 16> F 1.1239703055 0.0000000000 -0.6825802168
| 17> F -0.5619851527 0.9733868376 -0.6825802168
| 18> F -0.5619851527 -0.9733868376 -0.6825802168
| 19> **                         ****END OF INPUT****
================================================================================

                       *****************************
                       * Geometry Optimization Run *
                       *****************************

Geometry optimization settings:
Update method            Update   .... BFGS
Choice of coordinates    CoordSys .... Z-matrix Internals
Initial Hessian          InHess   .... Almoef's Model

Convergence Tolerances:
Energy Change            TolE     ....  5.0000e-06 Eh
Max. Gradient            TolMAXG  ....  3.0000e-04 Eh/bohr
RMS Gradient             TolRMSG  ....  1.0000e-04 Eh/bohr
Max. Displacement        TolMAXD  ....  4.0000e-03 bohr
RMS Displacement         TolRMSD  ....  2.0000e-03 bohr
Strict Convergence                ....  False
------------------------------------------------------------------------------
                        ORCA OPTIMIZATION COORDINATE SETUP
------------------------------------------------------------------------------

The optimization will be done in new redundant internal coordinates
Making redundant internal coordinates   ...  (new redundants) done
Evaluating the initial hessian          ...  (Almloef) done
Evaluating the coordinates              ...  done
Calculating the B-matrix                .... done
Calculating the G-matrix                .... done
Diagonalizing the G-matrix              .... done
Imposing constraints:
 Iter   0:  RMS(Cart)=    0.0000000000 RMS(Int)=    0.0000000000
CONVERGED
Will constrain atom 0 coordinate 1 
Will constrain atom 0 coordinate 2 
Will constrain atom 1 coordinate 2 
The first mode is                       ....    1
The number of degrees of freedom        ....    6
Storing new coordinates                 .... done

    -----------------------------------------------------------------
                    Redundant Internal Coordinates


    -----------------------------------------------------------------
         Definition                    Initial Value    Approx d2E/dq
    -----------------------------------------------------------------
      1. B(F   1,C   0)                  1.3150         0.684896   
      2. B(F   2,C   0)                  1.3150         0.684896   
      3. B(F   3,C   0)                  1.3150         0.684896   
      4. A(F   2,C   0,F   3)           95.5000         0.440101 C 
      5. A(F   1,C   0,F   2)           95.5000         0.440101 C 
      6. A(F   1,C   0,F   3)           95.5000         0.440101 C 
      7. I(F   1,F   3,F   2,C   0)     81.8046         0.002536   
    -----------------------------------------------------------------

Number of atoms                         .... 4
Number of degrees of freedom            .... 7

         *************************************************************
         *                GEOMETRY OPTIMIZATION CYCLE   1            *
         *************************************************************
---------------------------------
CARTESIAN COORDINATES (ANGSTROEM)
---------------------------------
  C      0.000000    0.000000    0.000000
  F      1.123970    0.000000   -0.682580
  F     -0.561985    0.973387   -0.682580
  F     -0.561985   -0.973387   -0.682580

----------------------------
CARTESIAN COORDINATES (A.U.)
----------------------------
  NO LB      ZA    FRAG     MASS         X           Y           Z
   0 C     6.0000    0    12.011    0.000000    0.000000    0.000000
   1 F     9.0000    0    18.998    2.123996    0.000000   -1.289890
   2 F     9.0000    0    18.998   -1.061998    1.839435   -1.289890
   3 F     9.0000    0    18.998   -1.061998   -1.839435   -1.289890

--------------------------------
INTERNAL COORDINATES (ANGSTROEM)
--------------------------------
 C      0   0   0     0.000000000000     0.00000000     0.00000000
 F      1   0   0     1.315000000005     0.00000000     0.00000000
 F      1   2   0     1.314999999937    95.50000000     0.00000000
 F      1   2   3     1.314999999937    95.50000000    96.08512817

---------------------------
INTERNAL COORDINATES (A.U.)
---------------------------
 C      0   0   0     0.000000000000     0.00000000     0.00000000
 F      1   0   0     2.484989866115     0.00000000     0.00000000
 F      1   2   0     2.484989865988    95.50000000     0.00000000
 F      1   2   3     2.484989865988    95.50000000    96.08512817

---------------------
BASIS SET INFORMATION
---------------------
There are 2 groups of distinct atoms

 Group   1 Type C   : 12s6p3d1f contracted to 6s3p3d1f pattern {621111/411/111/1}
 Group   2 Type F   : 12s7p3d1f contracted to 6s4p3d1f pattern {621111/4111/111/1}

Atom   0C    basis set group =>   1
Atom   1F    basis set group =>   2
Atom   2F    basis set group =>   2
Atom   3F    basis set group =>   2
---------------------------------
AUXILIARY/J BASIS SET INFORMATION
---------------------------------
There are 2 groups of distinct atoms

 Group   1 Type C   : 12s5p4d2f1g contracted to 6s4p3d1f1g pattern {711111/2111/211/2/1}
 Group   2 Type F   : 12s5p4d2f1g contracted to 6s4p3d1f1g pattern {711111/2111/211/2/1}

Atom   0C    basis set group =>   1
Atom   1F    basis set group =>   2
Atom   2F    basis set group =>   2
Atom   3F    basis set group =>   2


           ************************************************************
           *        Program running with 18 parallel MPI-processes    *
           *              working on a common directory               *
           ************************************************************
------------------------------------------------------------------------------
                           ORCA GTO INTEGRAL CALCULATION
                           -- RI-GTO INTEGRALS CHOSEN --
------------------------------------------------------------------------------
------------------------------------------------------------------------------
                   ___                                                        
                  /   \      - P O W E R E D   B Y -                         
                 /     \                                                     
                 |  |  |   _    _      __       _____    __    __             
                 |  |  |  | |  | |    /  \     |  _  \  |  |  /  |          
                  \  \/   | |  | |   /    \    | | | |  |  | /  /          
                 / \  \   | |__| |  /  /\  \   | |_| |  |  |/  /          
                |  |  |   |  __  | /  /__\  \  |    /   |      \           
                |  |  |   | |  | | |   __   |  |    \   |  |\   \          
                \     /   | |  | | |  |  |  |  | |\  \  |  | \   \       
                 \___/    |_|  |_| |__|  |__|  |_| \__\ |__|  \__/        
                                                                              
                      - O R C A' S   B I G   F R I E N D -                    
                                      &                                       
                       - I N T E G R A L  F E E D E R -                       
                                                                              
 v1 FN, 2020, v2 2021                                                         
------------------------------------------------------------------------------


Reading SHARK input file /beegfs/scratch/ispackman/PFAS_EPR_calcs/benchmark/JChemEd_CF3_radical/CF3_radical_95.5_degrees_IN-PROGRESS/CF3_radical_95.5_degrees.SHARKINP.tmp ... ok
----------------------
SHARK INTEGRAL PACKAGE
----------------------

Number of atoms                             ...      4
Number of basis functions                   ...    157
Number of shells                            ...     55
Maximum angular momentum                    ...      3
Integral batch strategy                     ... SHARK/LIBINT Hybrid
RI-J (if used) integral strategy            ... SPLIT-RIJ (Revised 2003 algorithm where possible)
Printlevel                                  ...      1
Contraction scheme used                     ... SEGMENTED contraction
Coulomb Range Separation                    ... NOT USED
Exchange Range Separation                   ... Long Range
   Mu parameter                             ...  0.250000
   Scaling (regular/separated)              ...  0.195728  0.804272
Finite Nucleus Model                        ... NOT USED
Auxiliary Coulomb fitting basis             ... AVAILABLE
   # of basis functions in Aux-J            ...    196
   # of shells in Aux-J                     ...     60
   Maximum angular momentum in Aux-J        ...      4
Auxiliary J/K fitting basis                 ... NOT available
Auxiliary Correlation fitting basis         ... NOT available
Auxiliary 'external' fitting basis          ... NOT available
Integral threshold                          ...     2.500000e-11
Primitive cut-off                           ...     2.500000e-12
Primitive pair pre-selection threshold      ...     2.500000e-12

Calculating pre-screening integrals         ... done (  0.0 sec) Dimension = 55
Organizing shell pair data                  ... done (  0.0 sec)
Shell pair information
Total number of shell pairs                 ...      1540
Shell pairs after pre-screening             ...      1516
Total number of primitive shell pairs       ...      4274
Primitive shell pairs kept                  ...      3587
          la=0 lb=0:    282 shell pairs
          la=1 lb=0:    360 shell pairs
          la=1 lb=1:    120 shell pairs
          la=2 lb=0:    282 shell pairs
          la=2 lb=1:    180 shell pairs
          la=2 lb=2:     78 shell pairs
          la=3 lb=0:     96 shell pairs
          la=3 lb=1:     60 shell pairs
          la=3 lb=2:     48 shell pairs
          la=3 lb=3:     10 shell pairs

Calculating one electron integrals          ... done (  0.0 sec)
Calculating RI/J V-Matrix + Cholesky decomp.... done (  0.0 sec)
Calculating Nuclear repulsion               ... done (  0.0 sec) ENN=    131.244320298851 Eh

SHARK setup successfully completed in   0.3 seconds

Maximum memory used throughout the entire GTOINT-calculation: 15.2 MB


           ************************************************************
           *        Program running with 18 parallel MPI-processes    *
           *              working on a common directory               *
           ************************************************************
-------------------------------------------------------------------------------
                                 ORCA SCF
-------------------------------------------------------------------------------

------------
SCF SETTINGS
------------
Hamiltonian:
 Density Functional     Method          .... DFT(GTOs)
 Exchange Functional    Exchange        .... WB97X-D3
 Correlation Functional Correlation     .... WB97X-D3
 Gradients option       PostSCFGGA      .... off
 Hybrid DFT is turned on
   Fraction HF Exchange ScalHFX         ....  0.195728
   Scaling of DF-GGA-X  ScalDFX         ....  0.000000
   Scaling of DF-GGA-C  ScalDFC         ....  1.000000
   Scaling of DF-LDA-C  ScalLDAC        ....  1.000000
   Perturbative correction              ....  0.000000
   Density functional embedding theory  .... OFF
 Long-range corrected/Screened/Range-Separated Hybrid DFT is turned on
   Amount of maximum screened exact exchange              ....  0.804272
   Range separation parameter mu (erf(mu*r12)/r12)        ....  0.250000
 RI-approximation to the Coulomb term is turned on
   Number of AuxJ basis functions       .... 196
   RIJ-COSX (HFX calculated with COS-X)).... on


General Settings:
 Integral files         IntName         .... /beegfs/scratch/ispackman/PFAS_EPR_calcs/benchmark/JChemEd_CF3_radical/CF3_radical_95.5_degrees_IN-PROGRESS/CF3_radical_95.5_degrees
 Hartree-Fock type      HFTyp           .... UHF
 Total Charge           Charge          ....    0
 Multiplicity           Mult            ....    2
 Number of Electrons    NEL             ....   33
 Basis Dimension        Dim             ....  157
 Nuclear Repulsion      ENuc            ....    131.2443202989 Eh

Convergence Acceleration:
 DIIS                   CNVDIIS         .... on
   Start iteration      DIISMaxIt       ....    12
   Startup error        DIISStart       ....  0.200000
   # of expansion vecs  DIISMaxEq       ....     5
   Bias factor          DIISBfac        ....   1.050
   Max. coefficient     DIISMaxC        ....  10.000
 Trust-Rad. Augm. Hess. CNVTRAH         .... auto
   Auto Start mean grad. ratio tolernc. ....  1.125000
   Auto Start start iteration           ....    20
   Auto Start num. interpolation iter.  ....    10
   Max. Number of Micro iterations      ....    16
   Max. Number of Macro iterations      .... Maxiter - #DIIS iter
   Number of Davidson start vectors     ....     2
   Converg. threshold I  (grad. norm)   ....   1.000e-05
   Converg. threshold II (energy diff.) ....   1.000e-08
   Grad. Scal. Fac. for Micro threshold ....   0.100
   Minimum threshold for Micro iter.    ....   0.010
   NR start threshold (gradient norm)   ....   0.001
   Initial trust radius                 ....   0.400
   Minimum AH scaling param. (alpha)    ....   1.000
   Maximum AH scaling param. (alpha)    .... 1000.000
   Orbital update algorithm             .... Taylor
   White noise on init. David. guess    .... on
   Maximum white noise                  ....   0.010
   Quad. conv. algorithm                .... NR
 SOSCF                  CNVSOSCF        .... off
 Level Shifting         CNVShift        .... on
   Level shift para.    LevelShift      ....    0.2500
   Turn off err/grad.   ShiftErr        ....    0.0010
 Zerner damping         CNVZerner       .... off
 Static damping         CNVDamp         .... on
   Fraction old density DampFac         ....    0.7000
   Max. Damping (<1)    DampMax         ....    0.9800
   Min. Damping (>=0)   DampMin         ....    0.0000
   Turn off err/grad.   DampErr         ....    0.1000
 Fernandez-Rico         CNVRico         .... off

SCF Procedure:
 Maximum # iterations   MaxIter         ....   125
 SCF integral mode      SCFMode         .... Direct
   Integral package                     .... SHARK and LIBINT hybrid scheme
 Reset frequency        DirectResetFreq ....    20
 Integral Threshold     Thresh          ....  2.500e-11 Eh
 Primitive CutOff       TCut            ....  2.500e-12 Eh

Convergence Tolerance:
 Convergence Check Mode ConvCheckMode   .... Total+1el-Energy
 Convergence forced     ConvForced      .... 0
 Energy Change          TolE            ....  1.000e-08 Eh
 1-El. energy change                    ....  1.000e-05 Eh
 DIIS Error             TolErr          ....  5.000e-07


Diagonalization of the overlap matrix:
Smallest eigenvalue                        ... 3.442e-04
Time for diagonalization                   ...    0.007 sec
Threshold for overlap eigenvalues          ... 1.000e-08
Number of eigenvalues below threshold      ... 0
Time for construction of square roots      ...    0.017 sec
Total time needed                          ...    0.025 sec

Time for model grid setup =    0.069 sec

------------------------------
INITIAL GUESS: MODEL POTENTIAL
------------------------------
Loading Hartree-Fock densities                     ... done
Calculating cut-offs                               ... done
Initializing the effective Hamiltonian             ... done
Setting up the integral package (SHARK)            ... done
Starting the Coulomb interaction                   ... done (   0.1 sec)
Reading the grid                                   ... done
Mapping shells                                     ... done
Starting the XC term evaluation                    ... done (   0.0 sec)
  promolecular density results
     # of electrons  =     33.000084259
     EX              =    -35.109280293
     EC              =     -1.150894791
     EX+EC           =    -36.260175084
Transforming the Hamiltonian                       ... done (   0.0 sec)
Diagonalizing the Hamiltonian                      ... done (   0.0 sec)
Back transforming the eigenvectors                 ... done (   0.0 sec)
Now organizing SCF variables                       ... done
                      ------------------
                      INITIAL GUESS DONE (   0.2 sec)
                      ------------------
-------------------
DFT GRID GENERATION
-------------------

General Integration Accuracy     IntAcc      ... 4.388
Radial Grid Type                 RadialGrid  ... OptM3 with GC (2021)
Angular Grid (max. ang.)         AngularGrid ... 4 (Lebedev-302)
Angular grid pruning method      GridPruning ... 4 (adaptive)
Weight generation scheme         WeightScheme... Becke
Basis function cutoff            BFCut       ... 1.0000e-11
Integration weight cutoff        WCut        ... 1.0000e-14
Angular grids for H and He will be reduced by one unit
Partially contracted basis set               ... off
Rotationally invariant grid construction     ... off

Total number of grid points                  ...    25774
Total number of batches                      ...      405
Average number of points per batch           ...       63
Average number of grid points per atom       ...     6444
Time for grid setup =    0.151 sec

--------------------
COSX GRID GENERATION
--------------------

GRIDX 1
-------
General Integration Accuracy     IntAcc      ... 3.816
Radial Grid Type                 RadialGrid  ... OptM3 with GC (2021)
Angular Grid (max. ang.)         AngularGrid ... 1 (Lebedev-50)
Angular grid pruning method      GridPruning ... 4 (adaptive)
Weight generation scheme         WeightScheme... Becke
Basis function cutoff            BFCut       ... 1.0000e-11
Integration weight cutoff        WCut        ... 1.0000e-14
Angular grids for H and He will be reduced by one unit
Partially contracted basis set               ... on
Rotationally invariant grid construction     ... off

Total number of grid points                  ...     3274
Total number of batches                      ...       53
Average number of points per batch           ...       61
Average number of grid points per atom       ...      818
UseSFitting                                  ... on

GRIDX 2
-------
General Integration Accuracy     IntAcc      ... 4.020
Radial Grid Type                 RadialGrid  ... OptM3 with GC (2021)
Angular Grid (max. ang.)         AngularGrid ... 2 (Lebedev-110)
Angular grid pruning method      GridPruning ... 4 (adaptive)
Weight generation scheme         WeightScheme... Becke
Basis function cutoff            BFCut       ... 1.0000e-11
Integration weight cutoff        WCut        ... 1.0000e-14
Angular grids for H and He will be reduced by one unit
Partially contracted basis set               ... on
Rotationally invariant grid construction     ... off

Total number of grid points                  ...     9143
Total number of batches                      ...      145
Average number of points per batch           ...       63
Average number of grid points per atom       ...     2286
UseSFitting                                  ... on

GRIDX 3
-------
General Integration Accuracy     IntAcc      ... 4.338
Radial Grid Type                 RadialGrid  ... OptM3 with GC (2021)
Angular Grid (max. ang.)         AngularGrid ... 3 (Lebedev-194)
Angular grid pruning method      GridPruning ... 4 (adaptive)
Weight generation scheme         WeightScheme... Becke
Basis function cutoff            BFCut       ... 1.0000e-11
Integration weight cutoff        WCut        ... 1.0000e-14
Angular grids for H and He will be reduced by one unit
Partially contracted basis set               ... on
Rotationally invariant grid construction     ... off

Total number of grid points                  ...    19688
Total number of batches                      ...      310
Average number of points per batch           ...       63
Average number of grid points per atom       ...     4922
UseSFitting                                  ... on

Time for X-Grid setup             =    0.334 sec

--------------
SCF ITERATIONS
--------------
ITER       Energy         Delta-E        Max-DP      RMS-DP      [F,P]     Damp
               ***  Starting incremental Fock matrix formation  ***
  0   -337.4885081538   0.000000000000 0.02132873  0.00043762  0.0747635 0.7000
  1   -337.5214354495  -0.032927295752 0.01153419  0.00028732  0.0351418 0.7000
                               ***Turning on DIIS***
  2   -337.5348737085  -0.013438259011 0.02767510  0.00053265  0.0172260 0.0000
  3   -337.5584634269  -0.023589718374 0.00693196  0.00016125  0.0153194 0.0000
  4   -337.5623652896  -0.003901862639 0.00478524  0.00007656  0.0034044 0.0000
  5   -337.5625723160  -0.000207026408 0.00283024  0.00004454  0.0019320 0.0000
  6   -337.5626334170  -0.000061101072 0.00219256  0.00003966  0.0008419 0.0000
               *** Restarting incremental Fock matrix formation ***
                                   *** Resetting DIIS ***
  7   -337.5626576888  -0.000024271777 0.00043848  0.00000707  0.0002002 0.0000
  8   -337.5626586464  -0.000000957624 0.00007343  0.00000215  0.0001111 0.0000
  9   -337.5626588861  -0.000000239691 0.00008145  0.00000182  0.0001065 0.0000
 10   -337.5626590275  -0.000000141334 0.00004978  0.00000061  0.0000133 0.0000
 11   -337.5626590303  -0.000000002832 0.00001147  0.00000014  0.0000023 0.0000
                            ***DIIS convergence achieved***

               *****************************************************
               *                     SUCCESS                       *
               *           SCF CONVERGED AFTER  12 CYCLES          *
               *****************************************************

Old exchange energy                            =    -10.545940878 Eh
New exchange energy                            =    -10.545940544 Eh
Exchange energy change after final integration =      0.000000334 Eh
Total energy after final integration           =   -337.562658697 Eh
Final COS-X integration done in                =     0.394 sec

----------------
TOTAL SCF ENERGY
----------------

Total Energy       :         -337.56265870 Eh           -9185.54693 eV

Components:
Nuclear Repulsion  :          131.24432030 Eh            3571.33952 eV
Electronic Energy  :         -468.80697900 Eh          -12756.88645 eV
One Electron Energy:         -729.50537215 Eh          -19850.85037 eV
Two Electron Energy:          260.69839316 Eh            7093.96393 eV
Max COSX asymmetry :            0.00000042 Eh               0.00001 eV

Virial components:
Potential Energy   :         -674.53107437 Eh          -18354.92368 eV
Kinetic Energy     :          336.96841567 Eh            9169.37675 eV
Virial Ratio       :            2.00176350


DFT components:
N(Alpha)           :       16.999876484606 electrons
N(Beta)            :       15.999881234819 electrons
N(Total)           :       32.999757719425 electrons
E(XC)              :      -26.232105011074 Eh       
DFET-embed. en.    :        0.000000000000 Eh       

---------------
SCF CONVERGENCE
---------------

  Last Energy change         ...   -1.3535e-09  Tolerance :   1.0000e-08
  Last MAX-Density change    ...    0.0000e+00  Tolerance :   1.0000e-07
  Last RMS-Density change    ...    0.0000e+00  Tolerance :   5.0000e-09
  Last DIIS Error            ...    8.2646e-07  Tolerance :   5.0000e-07

             **** THE GBW FILE WAS UPDATED (/beegfs/scratch/ispackman/PFAS_EPR_calcs/benchmark/JChemEd_CF3_radical/CF3_radical_95.5_degrees_IN-PROGRESS/CF3_radical_95.5_degrees.gbw) ****
             **** DENSITY /beegfs/scratch/ispackman/PFAS_EPR_calcs/benchmark/JChemEd_CF3_radical/CF3_radical_95.5_degrees_IN-PROGRESS/CF3_radical_95.5_degrees.scfp WAS UPDATED ****
             **** ENERGY FILE WAS UPDATED (/beegfs/scratch/ispackman/PFAS_EPR_calcs/benchmark/JChemEd_CF3_radical/CF3_radical_95.5_degrees_IN-PROGRESS/CF3_radical_95.5_degrees.en.tmp) ****
----------------------
UHF SPIN CONTAMINATION
----------------------

Warning: in a DFT calculation there is little theoretical justification to 
         calculate <S**2> as in Hartree-Fock theory. We will do it anyways
         but you should keep in mind that the values have only limited relevance

Expectation value of <S**2>     :     0.752290
Ideal value S*(S+1) for S=0.5   :     0.750000
Deviation                       :     0.002290

             **** THE GBW FILE WAS UPDATED (/beegfs/scratch/ispackman/PFAS_EPR_calcs/benchmark/JChemEd_CF3_radical/CF3_radical_95.5_degrees_IN-PROGRESS/CF3_radical_95.5_degrees.gbw) ****
             **** DENSITY /beegfs/scratch/ispackman/PFAS_EPR_calcs/benchmark/JChemEd_CF3_radical/CF3_radical_95.5_degrees_IN-PROGRESS/CF3_radical_95.5_degrees.scfp WAS UPDATED ****
----------------
ORBITAL ENERGIES
----------------
                 SPIN UP ORBITALS
  NO   OCC          E(Eh)            E(eV) 
   0   1.0000     -24.830201      -675.6641 
   1   1.0000     -24.830183      -675.6636 
   2   1.0000     -24.830180      -675.6636 
   3   1.0000     -10.555162      -287.2206 
   4   1.0000      -1.494445       -40.6659 
   5   1.0000      -1.355962       -36.8976 
   6   1.0000      -1.355957       -36.8975 
   7   1.0000      -0.837990       -22.8029 
   8   1.0000      -0.718970       -19.5642 
   9   1.0000      -0.718965       -19.5640 
  10   1.0000      -0.712090       -19.3770 
  11   1.0000      -0.604886       -16.4598 
  12   1.0000      -0.604878       -16.4596 
  13   1.0000      -0.527497       -14.3539 
  14   1.0000      -0.527491       -14.3538 
  15   1.0000      -0.510433       -13.8896 
  16   1.0000      -0.455883       -12.4052 
  17   0.0000       0.072348         1.9687 
  18   0.0000       0.104286         2.8378 
  19   0.0000       0.104287         2.8378 
  20   0.0000       0.111444         3.0325 
  21   0.0000       0.156584         4.2609 
  22   0.0000       0.156584         4.2609 
  23   0.0000       0.173818         4.7298 
  24   0.0000       0.173820         4.7299 
  25   0.0000       0.194507         5.2928 
  26   0.0000       0.202164         5.5012 
  27   0.0000       0.202170         5.5013 
  28   0.0000       0.241907         6.5826 
  29   0.0000       0.283108         7.7038 
  30   0.0000       0.344358         9.3705 
  31   0.0000       0.344362         9.3706 
  32   0.0000       0.356438         9.6992 
  33   0.0000       0.377255        10.2656 
  34   0.0000       0.377257        10.2657 
  35   0.0000       0.402688        10.9577 
  36   0.0000       0.402690        10.9578 
  37   0.0000       0.407003        11.0751 
  38   0.0000       0.444208        12.0875 
  39   0.0000       0.485075        13.1996 
  40   0.0000       0.485081        13.1997 
  41   0.0000       0.540095        14.6967 
  42   0.0000       0.580821        15.8050 
  43   0.0000       0.625798        17.0288 
  44   0.0000       0.625801        17.0289 
  45   0.0000       0.707129        19.2420 
  46   0.0000       0.707675        19.2568 
  47   0.0000       0.707683        19.2570 
  48   0.0000       0.728965        19.8361 
  49   0.0000       0.748609        20.3707 
  50   0.0000       0.748614        20.3708 
  51   0.0000       0.776557        21.1312 
  52   0.0000       0.793252        21.5855 
  53   0.0000       0.793253        21.5855 
  54   0.0000       0.860560        23.4170 
  55   0.0000       0.904844        24.6221 
  56   0.0000       0.904845        24.6221 
  57   0.0000       0.931701        25.3529 
  58   0.0000       0.979545        26.6548 
  59   0.0000       0.979547        26.6548 
  60   0.0000       1.082140        29.4465 
  61   0.0000       1.082140        29.4465 
  62   0.0000       1.121040        30.5050 
  63   0.0000       1.156057        31.4579 
  64   0.0000       1.156076        31.4584 
  65   0.0000       1.173700        31.9380 
  66   0.0000       1.255307        34.1586 
  67   0.0000       1.255308        34.1587 
  68   0.0000       1.262859        34.3641 
  69   0.0000       1.293086        35.1867 
  70   0.0000       1.293086        35.1867 
  71   0.0000       1.360214        37.0133 
  72   0.0000       1.476126        40.1674 
  73   0.0000       1.476139        40.1678 
  74   0.0000       1.640511        44.6406 
  75   0.0000       2.116995        57.6064 
  76   0.0000       2.157726        58.7147 
  77   0.0000       2.157743        58.7152 
  78   0.0000       2.204482        59.9870 
  79   0.0000       2.204505        59.9876 
  80   0.0000       2.205406        60.0121 
  81   0.0000       2.211074        60.1664 
  82   0.0000       2.340098        63.6773 
  83   0.0000       2.340106        63.6775 
  84   0.0000       2.467592        67.1466 
  85   0.0000       2.467596        67.1467 
  86   0.0000       2.490320        67.7650 
  87   0.0000       2.609483        71.0076 
  88   0.0000       2.609492        71.0079 
  89   0.0000       2.895467        78.7897 
  90   0.0000       2.927842        79.6706 
  91   0.0000       2.927863        79.6712 
  92   0.0000       2.992992        81.4434 
  93   0.0000       3.018499        82.1375 
  94   0.0000       3.171748        86.3077 
  95   0.0000       3.171826        86.3098 
  96   0.0000       3.195588        86.9564 
  97   0.0000       3.290262        89.5326 
  98   0.0000       3.290329        89.5344 
  99   0.0000       3.403680        92.6188 
 100   0.0000       3.403697        92.6193 
 101   0.0000       3.437944        93.5512 
 102   0.0000       3.649949        99.3202 
 103   0.0000       3.657876        99.5359 
 104   0.0000       3.657900        99.5365 
 105   0.0000       3.806645       103.5841 
 106   0.0000       3.932268       107.0025 
 107   0.0000       3.932297       107.0032 
 108   0.0000       3.972877       108.1075 
 109   0.0000       4.113840       111.9433 
 110   0.0000       4.113864       111.9439 
 111   0.0000       4.241595       115.4197 
 112   0.0000       4.350897       118.3939 
 113   0.0000       4.350932       118.3949 
 114   0.0000       5.405793       147.0991 
 115   0.0000       5.405826       147.1000 
 116   0.0000       5.603774       152.4865 
 117   0.0000       6.914038       188.1405 
 118   0.0000       6.914055       188.1410 
 119   0.0000       6.921991       188.3570 
 120   0.0000       6.936904       188.7627 
 121   0.0000       6.936917       188.7631 
 122   0.0000       6.937991       188.7923 
 123   0.0000       6.943405       188.9397 
 124   0.0000       6.943427       188.9403 
 125   0.0000       6.973496       189.7585 
 126   0.0000       7.054288       191.9569 
 127   0.0000       7.054331       191.9581 
 128   0.0000       7.185861       195.5372 
 129   0.0000       7.242674       197.0832 
 130   0.0000       7.242685       197.0835 
 131   0.0000       7.269780       197.8208 
 132   0.0000       7.421304       201.9440 
 133   0.0000       7.525309       204.7741 
 134   0.0000       7.655314       208.3117 
 135   0.0000       7.655363       208.3130 
 136   0.0000       7.786847       211.8909 
 137   0.0000       7.786892       211.8921 
 138   0.0000       8.536422       232.2879 
 139   0.0000       8.536423       232.2879 
 140   0.0000       8.566275       233.1002 
 141   0.0000       8.604973       234.1532 
 142   0.0000       8.615191       234.4313 
 143   0.0000       8.615228       234.4323 
 144   0.0000       8.873963       241.4728 
 145   0.0000       8.873975       241.4731 
 146   0.0000       8.877170       241.5601 
 147   0.0000       9.079971       247.0786 
 148   0.0000       9.080022       247.0800 
 149   0.0000       9.086338       247.2518 
 150   0.0000       9.291814       252.8431 
 151   0.0000       9.393067       255.5984 
 152   0.0000       9.393077       255.5986 
 153   0.0000      22.629090       615.7688 
 154   0.0000      57.421000      1562.5048 
 155   0.0000      57.421006      1562.5050 
 156   0.0000      57.559008      1566.2602 

                 SPIN DOWN ORBITALS
  NO   OCC          E(Eh)            E(eV) 
   0   1.0000     -24.827446      -675.5892 
   1   1.0000     -24.827431      -675.5887 
   2   1.0000     -24.827421      -675.5885 
   3   1.0000     -10.542202      -286.8679 
   4   1.0000      -1.486013       -40.4365 
   5   1.0000      -1.347401       -36.6646 
   6   1.0000      -1.347393       -36.6644 
   7   1.0000      -0.819582       -22.3020 
   8   1.0000      -0.708687       -19.2844 
   9   1.0000      -0.708686       -19.2843 
  10   1.0000      -0.670273       -18.2391 
  11   1.0000      -0.593069       -16.1382 
  12   1.0000      -0.593060       -16.1380 
  13   1.0000      -0.520241       -14.1565 
  14   1.0000      -0.520234       -14.1563 
  15   1.0000      -0.507153       -13.8003 
  16   0.0000      -0.104798        -2.8517 
  17   0.0000       0.082778         2.2525 
  18   0.0000       0.108192         2.9440 
  19   0.0000       0.108192         2.9441 
  20   0.0000       0.125145         3.4054 
  21   0.0000       0.163629         4.4526 
  22   0.0000       0.163629         4.4526 
  23   0.0000       0.178539         4.8583 
  24   0.0000       0.178540         4.8583 
  25   0.0000       0.204594         5.5673 
  26   0.0000       0.224542         6.1101 
  27   0.0000       0.224546         6.1102 
  28   0.0000       0.242351         6.5947 
  29   0.0000       0.288914         7.8617 
  30   0.0000       0.363257         9.8847 
  31   0.0000       0.363262         9.8849 
  32   0.0000       0.369262        10.0481 
  33   0.0000       0.378606        10.3024 
  34   0.0000       0.378607        10.3024 
  35   0.0000       0.405104        11.0234 
  36   0.0000       0.405105        11.0235 
  37   0.0000       0.413437        11.2502 
  38   0.0000       0.454251        12.3608 
  39   0.0000       0.486978        13.2513 
  40   0.0000       0.486983        13.2515 
  41   0.0000       0.541924        14.7465 
  42   0.0000       0.591097        16.0846 
  43   0.0000       0.627486        17.0748 
  44   0.0000       0.627491        17.0749 
  45   0.0000       0.707322        19.2472 
  46   0.0000       0.708818        19.2879 
  47   0.0000       0.708826        19.2881 
  48   0.0000       0.737844        20.0778 
  49   0.0000       0.751061        20.4374 
  50   0.0000       0.751068        20.4376 
  51   0.0000       0.775748        21.1092 
  52   0.0000       0.795437        21.6449 
  53   0.0000       0.795438        21.6450 
  54   0.0000       0.861554        23.4441 
  55   0.0000       0.907042        24.6819 
  56   0.0000       0.907042        24.6819 
  57   0.0000       0.946817        25.7642 
  58   0.0000       0.986759        26.8511 
  59   0.0000       0.986762        26.8512 
  60   0.0000       1.085187        29.5295 
  61   0.0000       1.085190        29.5295 
  62   0.0000       1.126850        30.6632 
  63   0.0000       1.158559        31.5260 
  64   0.0000       1.158576        31.5265 
  65   0.0000       1.186160        32.2770 
  66   0.0000       1.263819        34.3903 
  67   0.0000       1.266261        34.4567 
  68   0.0000       1.266266        34.4568 
  69   0.0000       1.299766        35.3684 
  70   0.0000       1.299779        35.3688 
  71   0.0000       1.360616        37.0243 
  72   0.0000       1.477725        40.2109 
  73   0.0000       1.477746        40.2115 
  74   0.0000       1.695764        46.1441 
  75   0.0000       2.126234        57.8578 
  76   0.0000       2.166815        58.9620 
  77   0.0000       2.166839        58.9627 
  78   0.0000       2.209033        60.1108 
  79   0.0000       2.214212        60.2518 
  80   0.0000       2.214242        60.2526 
  81   0.0000       2.220357        60.4190 
  82   0.0000       2.344468        63.7962 
  83   0.0000       2.344477        63.7965 
  84   0.0000       2.473233        67.3001 
  85   0.0000       2.473234        67.3001 
  86   0.0000       2.491840        67.8064 
  87   0.0000       2.636159        71.7335 
  88   0.0000       2.636167        71.7338 
  89   0.0000       2.904302        79.0301 
  90   0.0000       2.932671        79.8020 
  91   0.0000       2.932697        79.8027 
  92   0.0000       2.997382        81.5629 
  93   0.0000       3.034346        82.5688 
  94   0.0000       3.186350        86.7050 
  95   0.0000       3.186363        86.7053 
  96   0.0000       3.248657        88.4005 
  97   0.0000       3.317763        90.2809 
  98   0.0000       3.317790        90.2817 
  99   0.0000       3.449118        93.8553 
 100   0.0000       3.449534        93.8666 
 101   0.0000       3.449535        93.8666 
 102   0.0000       3.672954        99.9462 
 103   0.0000       3.672991        99.9472 
 104   0.0000       3.687620       100.3453 
 105   0.0000       3.813783       103.7783 
 106   0.0000       3.962290       107.8194 
 107   0.0000       3.962322       107.8203 
 108   0.0000       3.979087       108.2765 
 109   0.0000       4.123796       112.2142 
 110   0.0000       4.123809       112.2146 
 111   0.0000       4.255832       115.8071 
 112   0.0000       4.362509       118.7099 
 113   0.0000       4.362562       118.7113 
 114   0.0000       5.414655       147.3403 
 115   0.0000       5.414683       147.3410 
 116   0.0000       5.615889       152.8161 
 117   0.0000       6.919847       188.2986 
 118   0.0000       6.919860       188.2990 
 119   0.0000       6.927813       188.5154 
 120   0.0000       6.939457       188.8322 
 121   0.0000       6.939468       188.8325 
 122   0.0000       6.943376       188.9389 
 123   0.0000       6.949282       189.0996 
 124   0.0000       6.949299       189.1000 
 125   0.0000       6.975160       189.8038 
 126   0.0000       7.059221       192.0912 
 127   0.0000       7.059264       192.0924 
 128   0.0000       7.190798       195.6716 
 129   0.0000       7.251047       197.3110 
 130   0.0000       7.251048       197.3111 
 131   0.0000       7.276297       197.9981 
 132   0.0000       7.429037       202.1544 
 133   0.0000       7.533954       205.0093 
 134   0.0000       7.661820       208.4887 
 135   0.0000       7.661872       208.4901 
 136   0.0000       7.795184       212.1177 
 137   0.0000       7.795234       212.1191 
 138   0.0000       8.543862       232.4903 
 139   0.0000       8.543862       232.4903 
 140   0.0000       8.576703       233.3839 
 141   0.0000       8.614039       234.3999 
 142   0.0000       8.624382       234.6814 
 143   0.0000       8.624419       234.6824 
 144   0.0000       8.880684       241.6557 
 145   0.0000       8.884140       241.7497 
 146   0.0000       8.884154       241.7501 
 147   0.0000       9.084070       247.1901 
 148   0.0000       9.084115       247.1913 
 149   0.0000       9.095013       247.4879 
 150   0.0000       9.296844       252.9800 
 151   0.0000       9.399989       255.7867 
 152   0.0000       9.399997       255.7869 
 153   0.0000      22.652468       616.4050 
 154   0.0000      57.423726      1562.5790 
 155   0.0000      57.423732      1562.5792 
 156   0.0000      57.561761      1566.3352 

                    ********************************
                    * MULLIKEN POPULATION ANALYSIS *
                    ********************************

--------------------------------------------
MULLIKEN ATOMIC CHARGES AND SPIN POPULATIONS
--------------------------------------------
   0 C :    0.577195    0.774841
   1 F :   -0.192231    0.075088
   2 F :   -0.192482    0.075036
   3 F :   -0.192483    0.075035
Sum of atomic charges         :    0.0000000
Sum of atomic spin populations:    1.0000000

-----------------------------------------------------
MULLIKEN REDUCED ORBITAL CHARGES AND SPIN POPULATIONS
-----------------------------------------------------
CHARGE
  0 C s       :     3.177271  s :     3.177271
      pz      :     0.808425  p :     1.918345
      px      :     0.554962
      py      :     0.554957
      dz2     :     0.064506  d :     0.282473
      dxz     :     0.045053
      dyz     :     0.045049
      dx2y2   :     0.063928
      dxy     :     0.063938
      f0      :     0.001782  f :     0.044716
      f+1     :     0.007364
      f-1     :     0.007362
      f+2     :     0.008064
      f-2     :     0.008070
      f+3     :     0.003482
      f-3     :     0.008592
  1 F s       :     3.954032  s :     3.954032
      pz      :     1.685513  p :     5.229500
      px      :     1.612251
      py      :     1.931736
      dz2     :     0.000743  d :     0.007817
      dxz     :     0.005242
      dyz     :     0.002127
      dx2y2   :     0.003691
      dxy     :    -0.003986
      f0      :     0.000085  f :     0.000881
      f+1     :     0.000199
      f-1     :     0.000010
      f+2     :     0.000232
      f-2     :     0.000091
      f+3     :     0.000133
      f-3     :     0.000131
  2 F s       :     3.954137  s :     3.954137
      pz      :     1.685494  p :     5.229657
      px      :     1.851923
      py      :     1.692239
      dz2     :     0.000742  d :     0.007807
      dxz     :     0.002905
      dyz     :     0.004461
      dx2y2   :    -0.002066
      dxy     :     0.001765
      f0      :     0.000085  f :     0.000882
      f+1     :     0.000057
      f-1     :     0.000152
      f+2     :     0.000126
      f-2     :     0.000197
      f+3     :     0.000133
      f-3     :     0.000131
  3 F s       :     3.954137  s :     3.954137
      pz      :     1.685494  p :     5.229657
      px      :     1.851924
      py      :     1.692239
      dz2     :     0.000742  d :     0.007807
      dxz     :     0.002905
      dyz     :     0.004461
      dx2y2   :    -0.002066
      dxy     :     0.001765
      f0      :     0.000085  f :     0.000882
      f+1     :     0.000057
      f-1     :     0.000152
      f+2     :     0.000126
      f-2     :     0.000197
      f+3     :     0.000133
      f-3     :     0.000131

SPIN
  0 C s       :     0.281432  s :     0.281432
      pz      :     0.457614  p :     0.485347
      px      :     0.013851
      py      :     0.013881
      dz2     :     0.013256  d :     0.008741
      dxz     :    -0.001369
      dyz     :    -0.001366
      dx2y2   :    -0.000891
      dxy     :    -0.000889
      f0      :     0.000031  f :    -0.000679
      f+1     :    -0.000260
      f-1     :    -0.000259
      f+2     :    -0.000226
      f-2     :    -0.000227
      f+3     :     0.000227
      f-3     :     0.000036
  1 F s       :     0.002977  s :     0.002977
      pz      :     0.074885  p :     0.070528
      px      :    -0.003108
      py      :    -0.001250
      dz2     :    -0.000305  d :     0.001556
      dxz     :     0.001239
      dyz     :    -0.000022
      dx2y2   :     0.000764
      dxy     :    -0.000119
      f0      :     0.000006  f :     0.000027
      f+1     :     0.000009
      f-1     :     0.000002
      f+2     :     0.000004
      f-2     :     0.000001
      f+3     :     0.000007
      f-3     :    -0.000001
  2 F s       :     0.002961  s :     0.002961
      pz      :     0.074860  p :     0.070488
      px      :    -0.001719
      py      :    -0.002653
      dz2     :    -0.000305  d :     0.001559
      dxz     :     0.000293
      dyz     :     0.000923
      dx2y2   :     0.000102
      dxy     :     0.000546
      f0      :     0.000006  f :     0.000027
      f+1     :     0.000004
      f-1     :     0.000007
      f+2     :     0.000001
      f-2     :     0.000003
      f+3     :     0.000007
      f-3     :    -0.000001
  3 F s       :     0.002961  s :     0.002961
      pz      :     0.074860  p :     0.070488
      px      :    -0.001719
      py      :    -0.002653
      dz2     :    -0.000305  d :     0.001559
      dxz     :     0.000293
      dyz     :     0.000923
      dx2y2   :     0.000102
      dxy     :     0.000546
      f0      :     0.000006  f :     0.000027
      f+1     :     0.000004
      f-1     :     0.000007
      f+2     :     0.000001
      f-2     :     0.000003
      f+3     :     0.000007
      f-3     :    -0.000001


                     *******************************
                     * LOEWDIN POPULATION ANALYSIS *
                     *******************************

-------------------------------------------
LOEWDIN ATOMIC CHARGES AND SPIN POPULATIONS
-------------------------------------------
   0 C :   -0.307046    0.629327
   1 F :    0.102361    0.123564
   2 F :    0.102343    0.123554
   3 F :    0.102343    0.123554

----------------------------------------------------
LOEWDIN REDUCED ORBITAL CHARGES AND SPIN POPULATIONS
----------------------------------------------------
CHARGE
  0 C s       :     2.717850  s :     2.717850
      pz      :     0.801981  p :     2.148607
      px      :     0.673304
      py      :     0.673322
      dz2     :     0.170938  d :     1.153203
      dxz     :     0.219563
      dyz     :     0.219562
      dx2y2   :     0.271567
      dxy     :     0.271572
      f0      :     0.017419  f :     0.287387
      f+1     :     0.037405
      f-1     :     0.037403
      f+2     :     0.059285
      f-2     :     0.059291
      f+3     :     0.030487
      f-3     :     0.046097
  1 F s       :     3.545334  s :     3.545334
      pz      :     1.642481  p :     5.093530
      px      :     1.660603
      py      :     1.790446
      dz2     :     0.046019  d :     0.256672
      dxz     :     0.069251
      dyz     :     0.014906
      dx2y2   :     0.044321
      dxy     :     0.082175
      f0      :     0.000176  f :     0.002103
      f+1     :     0.000568
      f-1     :     0.000004
      f+2     :     0.000495
      f-2     :     0.000219
      f+3     :     0.000279
      f-3     :     0.000362
  2 F s       :     3.545339  s :     3.545339
      pz      :     1.642480  p :     5.093547
      px      :     1.757994
      py      :     1.693073
      dz2     :     0.046019  d :     0.256668
      dxz     :     0.028492
      dyz     :     0.055664
      dx2y2   :     0.072711
      dxy     :     0.053783
      f0      :     0.000176  f :     0.002103
      f+1     :     0.000145
      f-1     :     0.000427
      f+2     :     0.000288
      f-2     :     0.000426
      f+3     :     0.000279
      f-3     :     0.000362
  3 F s       :     3.545339  s :     3.545339
      pz      :     1.642480  p :     5.093547
      px      :     1.757994
      py      :     1.693073
      dz2     :     0.046019  d :     0.256668
      dxz     :     0.028492
      dyz     :     0.055664
      dx2y2   :     0.072711
      dxy     :     0.053783
      f0      :     0.000176  f :     0.002103
      f+1     :     0.000145
      f-1     :     0.000427
      f+2     :     0.000288
      f-2     :     0.000426
      f+3     :     0.000279
      f-3     :     0.000362

SPIN
  0 C s       :     0.166817  s :     0.166817
      pz      :     0.395455  p :     0.407884
      px      :     0.006210
      py      :     0.006218
      dz2     :     0.054731  d :     0.046321
      dxz     :    -0.003545
      dyz     :    -0.003544
      dx2y2   :    -0.000661
      dxy     :    -0.000660
      f0      :     0.002675  f :     0.008304
      f+1     :    -0.000235
      f-1     :    -0.000234
      f+2     :    -0.000170
      f-2     :    -0.000172
      f+3     :     0.006438
      f-3     :     0.000002
  1 F s       :     0.014505  s :     0.014505
      pz      :     0.077038  p :     0.082169
      px      :     0.005721
      py      :    -0.000590
      dz2     :     0.012366  d :     0.026592
      dxz     :     0.013486
      dyz     :    -0.000238
      dx2y2   :     0.000993
      dxy     :    -0.000015
      f0      :     0.000014  f :     0.000299
      f+1     :     0.000234
      f-1     :     0.000001
      f+2     :     0.000014
      f-2     :     0.000001
      f+3     :     0.000033
      f-3     :     0.000002
  2 F s       :     0.014505  s :     0.014505
      pz      :     0.077022  p :     0.082159
      px      :     0.000987
      py      :     0.004150
      dz2     :     0.012366  d :     0.026592
      dxz     :     0.003193
      dyz     :     0.010055
      dx2y2   :     0.000236
      dxy     :     0.000741
      f0      :     0.000014  f :     0.000298
      f+1     :     0.000059
      f-1     :     0.000176
      f+2     :     0.000004
      f-2     :     0.000011
      f+3     :     0.000033
      f-3     :     0.000002
  3 F s       :     0.014505  s :     0.014505
      pz      :     0.077022  p :     0.082159
      px      :     0.000987
      py      :     0.004150
      dz2     :     0.012366  d :     0.026592
      dxz     :     0.003193
      dyz     :     0.010055
      dx2y2   :     0.000236
      dxy     :     0.000741
      f0      :     0.000014  f :     0.000298
      f+1     :     0.000059
      f-1     :     0.000176
      f+2     :     0.000004
      f-2     :     0.000011
      f+3     :     0.000033
      f-3     :     0.000002


                      *****************************
                      * MAYER POPULATION ANALYSIS *
                      *****************************

  NA   - Mulliken gross atomic population
  ZA   - Total nuclear charge
  QA   - Mulliken gross atomic charge
  VA   - Mayer's total valence
  BVA  - Mayer's bonded valence
  FA   - Mayer's free valence

  ATOM       NA         ZA         QA         VA         BVA        FA
  0 C      5.4228     6.0000     0.5772     3.7936     3.1858     0.6078
  1 F      9.1922     9.0000    -0.1922     0.9963     0.9917     0.0046
  2 F      9.1925     9.0000    -0.1925     0.9959     0.9913     0.0046
  3 F      9.1925     9.0000    -0.1925     0.9959     0.9913     0.0046

  Mayer bond orders larger than 0.100000
B(  0-C ,  1-F ) :   1.0622 B(  0-C ,  2-F ) :   1.0618 B(  0-C ,  3-F ) :   1.0618 


-------
TIMINGS
-------

Total SCF time: 0 days 0 hours 0 min 11 sec 

Total time                  ....      11.538 sec
Sum of individual times     ....      10.675 sec  ( 92.5%)

Fock matrix formation       ....       8.945 sec  ( 77.5%)
  Split-RI-J                ....       1.135 sec  ( 12.7% of F)
  Chain of spheres X        ....       3.008 sec  ( 33.6% of F)
  XC integration            ....       1.884 sec  ( 21.1% of F)
    Basis function eval.    ....       0.113 sec  (  6.0% of XC)
    Density eval.           ....       0.152 sec  (  8.1% of XC)
    XC-Functional eval.     ....       0.063 sec  (  3.3% of XC)
    XC-Potential eval.      ....       0.313 sec  ( 16.6% of XC)
Diagonalization             ....       0.373 sec  (  3.2%)
Density matrix formation    ....       0.015 sec  (  0.1%)
Population analysis         ....       0.124 sec  (  1.1%)
Initial guess               ....       0.150 sec  (  1.3%)
Orbital Transformation      ....       0.000 sec  (  0.0%)
Orbital Orthonormalization  ....       0.000 sec  (  0.0%)
DIIS solution               ....       0.513 sec  (  4.4%)
Grid generation             ....       0.554 sec  (  4.8%)

Maximum memory used throughout the entire SCF-calculation: 63.2 MB


-------------------------------------------------------------------------------
                          DFT DISPERSION CORRECTION                            
                                                                               
                              DFTD3 V3.1  Rev 1                                
                              USING zero damping                               
-------------------------------------------------------------------------------
The omegaB97X-D3 functional is recognized. Fit by Chai et al.
Active option DFTDOPT                   ...         3   

molecular C6(AA) [au] = 165.453135 


            DFT-D V3
 parameters
 s6 scaling factor         :     1.0000 
 rs6 scaling factor        :     1.2810 
 s8 scaling factor         :     1.0000 
 rs8 scaling factor        :     1.0940 
 Damping factor alpha6     :    14.0000 
 Damping factor alpha8     :    16.0000 
 ad hoc parameters k1-k3   :    16.0000     1.3333    -4.0000 

 Edisp/kcal,au: -0.022219424572  -0.000035408903 
 E6   /kcal   :  -0.002811634 
 E8   /kcal   :  -0.019407791 
 % E8         :  87.346055816 

-------------------------   ----------------
Dispersion correction           -0.000035409
-------------------------   ----------------


-------------------------   --------------------
FINAL SINGLE POINT ENERGY      -337.562694106206
-------------------------   --------------------



           ************************************************************
           *        Program running with 18 parallel MPI-processes    *
           *              working on a common directory               *
           ************************************************************
------------------------------------------------------------------------------
                         ORCA SCF GRADIENT CALCULATION
------------------------------------------------------------------------------

 ... reading COSX grid (gridx3)
Gradient of the Kohn-Sham DFT energy:
Kohn-Sham wavefunction type      ... UKS
Hartree-Fock exchange scaling    ...    0.196
Number of operators              ...    2
Number of atoms                  ...    4
Basis set dimensions             ...  157
Integral neglect threshold       ... 2.5e-11
Integral primitive cutoff        ... 2.5e-12
SHARK Integral package           ... ON

Nuc. rep. gradient       (SHARK) ... done (  0.0 sec)
HCore & Overlap gradient (SHARK) ... done (  0.0 sec)
RI-J gradient            (SHARK) ... done (  0.2 sec)
COSX-gradient                    ... done (  0.5 sec)
Exchange-correlation gradient    ... done
Dispersion correction            ... done

------------------
CARTESIAN GRADIENT
------------------

WARNING: THERE ARE 3 CONSTRAINED CARTESIAN COORDINATES
   1   C   :   -0.000308414   -0.000000057    0.142880659
   2   F   :   -0.097689727    0.000000030   -0.047629752
   3   F   :    0.049039871   -0.084751646   -0.047924619
   4   F   :    0.049040161    0.084751502   -0.047924425

Difference to translation invariance:
           :    0.0000818920   -0.0000001713   -0.0005981367

Difference to rotation invariance:
           :   -0.0000005042   -0.0011295413    0.0000007515

Norm of the cartesian gradient     ...    0.2366344825
RMS gradient                       ...    0.0683104911
MAX gradient                       ...    0.1428806593

-------
TIMINGS
-------

Total SCF gradient time            ...        1.194 sec

One electron gradient       ....       0.014 sec  (  1.2%)
RI-J Coulomb gradient       ....       0.158 sec  ( 13.2%)
COSX gradient               ....       0.468 sec  ( 39.2%)
XC gradient                 ....       0.169 sec  ( 14.2%)

Maximum memory used throughout the entire SCFGRAD-calculation: 37.3 MB
------------------------------------------------------------------------------
                         ORCA GEOMETRY RELAXATION STEP
------------------------------------------------------------------------------

Reading the OPT-File                    .... done
Getting information on internals        .... done
Copying old internal coords+grads       .... done
Making the new internal coordinates     .... (new redundants).... done
Validating the new internal coordinates .... (new redundants).... done
Calculating the B-matrix                .... done
Calculating the G,G- and P matrices     .... done
Transforming gradient to internals      .... done
Projecting the internal gradient        .... done
Number of atoms                         ....   4
Number of internal coordinates          ....   7
Current Energy                          ....  -337.562694106 Eh
Current gradient norm                   ....     0.236634483 Eh/bohr
Maximum allowed component of the step   ....  0.300
Current trust radius                    ....  0.300
Evaluating the initial hessian          ....  (Almloef) done
Projecting the Hessian                  .... done
Forming the augmented Hessian           .... done
Diagonalizing the augmented Hessian     .... done
Last element of RFO vector              ....  0.989546014
Lowest eigenvalues of augmented Hessian:
 -0.014863202  0.684895726  0.684895726  0.699758928 1000.000000000
Length of the computed step             ....  0.145741073
The final length of the internal step   ....  0.145741073
Converting the step to cartesian space:
 Initial RMS(Int)=    0.0550849479
Transforming coordinates:
 Iter   0:  RMS(Cart)=    0.0375812905 RMS(Int)=    0.0550849483
 Iter   1:  RMS(Cart)=    0.0000000008 RMS(Int)=    0.0000000013
Imposing constraints:
 Iter   0:  RMS(Cart)=    0.0000000018 RMS(Int)=    0.0000000021
CONVERGED
done
Storing new coordinates                 .... done

                                .--------------------.
          ----------------------|Geometry convergence|-------------------------
          Item                value                   Tolerance       Converged
          ---------------------------------------------------------------------
          RMS gradient        0.0385461841            0.0001000000      NO
          MAX gradient        0.0589394570            0.0003000000      NO
          RMS step            0.0550849479            0.0020000000      NO
          MAX step            0.0842282316            0.0040000000      NO
          ........................................................
          Max(Bonds)      0.0446      Max(Angles)    0.00
          Max(Dihed)        0.00      Max(Improp)    0.00
          ---------------------------------------------------------------------

The optimization has not yet converged - more geometry cycles are needed


    ---------------------------------------------------------------------------
                         Redundant Internal Coordinates
                            (Angstroem and degrees)

        Definition                    Value    dE/dq     Step     New-Value
    ----------------------------------------------------------------------------
     1. B(F   1,C   0)                1.3150 -0.058762  0.0444    1.3594   
     2. B(F   2,C   0)                1.3150 -0.058939  0.0446    1.3596   
     3. B(F   3,C   0)                1.3150 -0.058939  0.0446    1.3596   
     4. A(F   2,C   0,F   3)           95.50 -0.160027    0.00     95.50 C 
     5. A(F   1,C   0,F   2)           95.50 -0.075839    0.00     95.50 C 
     6. A(F   1,C   0,F   3)           95.50 -0.075839    0.00     95.50 C 
     7. I(F   1,F   3,F   2,C   0)     81.80  0.126120   -0.00     81.80   
    ----------------------------------------------------------------------------

         *************************************************************
         *                GEOMETRY OPTIMIZATION CYCLE   2            *
         *************************************************************
---------------------------------
CARTESIAN COORDINATES (ANGSTROEM)
---------------------------------
  C      0.000042    0.000000    0.017334
  F      1.161976    0.000000   -0.688341
  F     -0.581009    1.006380   -0.688367
  F     -0.581009   -1.006380   -0.688367

----------------------------
CARTESIAN COORDINATES (A.U.)
----------------------------
  NO LB      ZA    FRAG     MASS         X           Y           Z
   0 C     6.0000    0    12.011    0.000080    0.000000    0.032757
   1 F     9.0000    0    18.998    2.195817    0.000000   -1.300777
   2 F     9.0000    0    18.998   -1.097948    1.901782   -1.300825
   3 F     9.0000    0    18.998   -1.097948   -1.901782   -1.300825

--------------------------------
INTERNAL COORDINATES (ANGSTROEM)
--------------------------------
 C      0   0   0     0.000000000000     0.00000000     0.00000000
 F      1   0   0     1.359437337831     0.00000000     0.00000000
 F      1   2   0     1.359571568728    95.50000011     0.00000000
 F      1   2   3     1.359571660382    95.50000011    96.08512842

---------------------------
INTERNAL COORDINATES (A.U.)
---------------------------
 C      0   0   0     0.000000000000     0.00000000     0.00000000
 F      1   0   0     2.568964264728     0.00000000     0.00000000
 F      1   2   0     2.569217924362    95.50000011     0.00000000
 F      1   2   3     2.569218097562    95.50000011    96.08512842



           ************************************************************
           *        Program running with 18 parallel MPI-processes    *
           *              working on a common directory               *
           ************************************************************
------------------------------------------------------------------------------
                   ___                                                        
                  /   \      - P O W E R E D   B Y -                         
                 /     \                                                     
                 |  |  |   _    _      __       _____    __    __             
                 |  |  |  | |  | |    /  \     |  _  \  |  |  /  |          
                  \  \/   | |  | |   /    \    | | | |  |  | /  /          
                 / \  \   | |__| |  /  /\  \   | |_| |  |  |/  /          
                |  |  |   |  __  | /  /__\  \  |    /   |      \           
                |  |  |   | |  | | |   __   |  |    \   |  |\   \          
                \     /   | |  | | |  |  |  |  | |\  \  |  | \   \       
                 \___/    |_|  |_| |__|  |__|  |_| \__\ |__|  \__/        
                                                                              
                      - O R C A' S   B I G   F R I E N D -                    
                                      &                                       
                       - I N T E G R A L  F E E D E R -                       
                                                                              
 v1 FN, 2020, v2 2021                                                         
------------------------------------------------------------------------------


Reading SHARK input file /beegfs/scratch/ispackman/PFAS_EPR_calcs/benchmark/JChemEd_CF3_radical/CF3_radical_95.5_degrees_IN-PROGRESS/CF3_radical_95.5_degrees.SHARKINP.tmp ... ok
----------------------
SHARK INTEGRAL PACKAGE
----------------------

Number of atoms                             ...      4
Number of basis functions                   ...    157
Number of shells                            ...     55
Maximum angular momentum                    ...      3
Integral batch strategy                     ... SHARK/LIBINT Hybrid
RI-J (if used) integral strategy            ... SPLIT-RIJ (Revised 2003 algorithm where possible)
Printlevel                                  ...      1
Contraction scheme used                     ... SEGMENTED contraction
Coulomb Range Separation                    ... NOT USED
Exchange Range Separation                   ... Long Range
   Mu parameter                             ...  0.250000
   Scaling (regular/separated)              ...  0.195728  0.804272
Finite Nucleus Model                        ... NOT USED
Auxiliary Coulomb fitting basis             ... AVAILABLE
   # of basis functions in Aux-J            ...    196
   # of shells in Aux-J                     ...     60
   Maximum angular momentum in Aux-J        ...      4
Auxiliary J/K fitting basis                 ... NOT available
Auxiliary Correlation fitting basis         ... NOT available
Auxiliary 'external' fitting basis          ... NOT available
Integral threshold                          ...     2.500000e-11
Primitive cut-off                           ...     2.500000e-12
Primitive pair pre-selection threshold      ...     2.500000e-12

Calculating pre-screening integrals         ... done (  0.0 sec) Dimension = 55
Organizing shell pair data                  ... done (  0.0 sec)
Shell pair information
Total number of shell pairs                 ...      1540
Shell pairs after pre-screening             ...      1510
Total number of primitive shell pairs       ...      4274
Primitive shell pairs kept                  ...      3575
          la=0 lb=0:    282 shell pairs
          la=1 lb=0:    360 shell pairs
          la=1 lb=1:    120 shell pairs
          la=2 lb=0:    276 shell pairs
          la=2 lb=1:    180 shell pairs
          la=2 lb=2:     78 shell pairs
          la=3 lb=0:     96 shell pairs
          la=3 lb=1:     60 shell pairs
          la=3 lb=2:     48 shell pairs
          la=3 lb=3:     10 shell pairs

Calculating one electron integrals          ... done (  0.0 sec)
Calculating RI/J V-Matrix + Cholesky decomp.... done (  0.0 sec)
Calculating Nuclear repulsion               ... done (  0.0 sec) ENN=    126.945841889855 Eh

SHARK setup successfully completed in   0.3 seconds

Maximum memory used throughout the entire GTOINT-calculation: 15.2 MB


           ************************************************************
           *        Program running with 18 parallel MPI-processes    *
           *              working on a common directory               *
           ************************************************************

Diagonalization of the overlap matrix:
Smallest eigenvalue                        ... 3.910e-04
Time for diagonalization                   ...    0.006 sec
Threshold for overlap eigenvalues          ... 1.000e-08
Number of eigenvalues below threshold      ... 0
Time for construction of square roots      ...    0.012 sec
Total time needed                          ...    0.019 sec

-------------------
DFT GRID GENERATION
-------------------

General Integration Accuracy     IntAcc      ... 4.388
Radial Grid Type                 RadialGrid  ... OptM3 with GC (2021)
Angular Grid (max. ang.)         AngularGrid ... 4 (Lebedev-302)
Angular grid pruning method      GridPruning ... 4 (adaptive)
Weight generation scheme         WeightScheme... Becke
Basis function cutoff            BFCut       ... 1.0000e-11
Integration weight cutoff        WCut        ... 1.0000e-14
Angular grids for H and He will be reduced by one unit
Partially contracted basis set               ... off
Rotationally invariant grid construction     ... off

Total number of grid points                  ...    25782
Total number of batches                      ...      404
Average number of points per batch           ...       63
Average number of grid points per atom       ...     6446
Time for grid setup =    0.153 sec

--------------------
COSX GRID GENERATION
--------------------

GRIDX 1
-------
General Integration Accuracy     IntAcc      ... 3.816
Radial Grid Type                 RadialGrid  ... OptM3 with GC (2021)
Angular Grid (max. ang.)         AngularGrid ... 1 (Lebedev-50)
Angular grid pruning method      GridPruning ... 4 (adaptive)
Weight generation scheme         WeightScheme... Becke
Basis function cutoff            BFCut       ... 1.0000e-11
Integration weight cutoff        WCut        ... 1.0000e-14
Angular grids for H and He will be reduced by one unit
Partially contracted basis set               ... on
Rotationally invariant grid construction     ... off

Total number of grid points                  ...     3274
Total number of batches                      ...       53
Average number of points per batch           ...       61
Average number of grid points per atom       ...      818
UseSFitting                                  ... on

GRIDX 2
-------
General Integration Accuracy     IntAcc      ... 4.020
Radial Grid Type                 RadialGrid  ... OptM3 with GC (2021)
Angular Grid (max. ang.)         AngularGrid ... 2 (Lebedev-110)
Angular grid pruning method      GridPruning ... 4 (adaptive)
Weight generation scheme         WeightScheme... Becke
Basis function cutoff            BFCut       ... 1.0000e-11
Integration weight cutoff        WCut        ... 1.0000e-14
Angular grids for H and He will be reduced by one unit
Partially contracted basis set               ... on
Rotationally invariant grid construction     ... off

Total number of grid points                  ...     9147
Total number of batches                      ...      144
Average number of points per batch           ...       63
Average number of grid points per atom       ...     2287
UseSFitting                                  ... on

GRIDX 3
-------
General Integration Accuracy     IntAcc      ... 4.338
Radial Grid Type                 RadialGrid  ... OptM3 with GC (2021)
Angular Grid (max. ang.)         AngularGrid ... 3 (Lebedev-194)
Angular grid pruning method      GridPruning ... 4 (adaptive)
Weight generation scheme         WeightScheme... Becke
Basis function cutoff            BFCut       ... 1.0000e-11
Integration weight cutoff        WCut        ... 1.0000e-14
Angular grids for H and He will be reduced by one unit
Partially contracted basis set               ... on
Rotationally invariant grid construction     ... off

Total number of grid points                  ...    19704
Total number of batches                      ...      310
Average number of points per batch           ...       63
Average number of grid points per atom       ...     4926
UseSFitting                                  ... on

Time for X-Grid setup             =    0.342 sec

--------------
SCF ITERATIONS
[...]
  FA   - Mayer's free valence

  ATOM       NA         ZA         QA         VA         BVA        FA
  0 C      5.4703     6.0000     0.5297     3.7688     3.1797     0.5891
  1 F      9.1763     9.0000    -0.1763     1.0156     1.0097     0.0060
  2 F      9.1767     9.0000    -0.1767     1.0151     1.0091     0.0060
  3 F      9.1767     9.0000    -0.1767     1.0151     1.0091     0.0060

  Mayer bond orders larger than 0.100000
B(  0-C ,  1-F ) :   1.0602 B(  0-C ,  2-F ) :   1.0597 B(  0-C ,  3-F ) :   1.0597 


-------
TIMINGS
-------

Total SCF time: 0 days 0 hours 0 min 4 sec 

Total time                  ....       4.687 sec
Sum of individual times     ....       3.980 sec  ( 84.9%)

Fock matrix formation       ....       3.122 sec  ( 66.6%)
  Split-RI-J                ....       0.460 sec  ( 14.8% of F)
  Chain of spheres X        ....       1.325 sec  ( 42.5% of F)
  XC integration            ....       0.560 sec  ( 17.9% of F)
    Basis function eval.    ....       0.036 sec  (  6.4% of XC)
    Density eval.           ....       0.045 sec  (  8.0% of XC)
    XC-Functional eval.     ....       0.018 sec  (  3.3% of XC)
    XC-Potential eval.      ....       0.060 sec  ( 10.7% of XC)
Diagonalization             ....       0.106 sec  (  2.3%)
Density matrix formation    ....       0.008 sec  (  0.2%)
Population analysis         ....       0.147 sec  (  3.1%)
Initial guess               ....       0.022 sec  (  0.5%)
Orbital Transformation      ....       0.000 sec  (  0.0%)
Orbital Orthonormalization  ....       0.012 sec  (  0.3%)
DIIS solution               ....       0.042 sec  (  0.9%)
Grid generation             ....       0.535 sec  ( 11.4%)

Maximum memory used throughout the entire SCF-calculation: 63.2 MB


-------------------------------------------------------------------------------
                          DFT DISPERSION CORRECTION                            
                                                                               
                              DFTD3 V3.1  Rev 1                                
                              USING zero damping                               
-------------------------------------------------------------------------------
The omegaB97X-D3 functional is recognized. Fit by Chai et al.
Active option DFTDOPT                   ...         3   

molecular C6(AA) [au] = 165.582296 


            DFT-D V3
 parameters
 s6 scaling factor         :     1.0000 
 rs6 scaling factor        :     1.2810 
 s8 scaling factor         :     1.0000 
 rs8 scaling factor        :     1.0940 
 Damping factor alpha6     :    14.0000 
 Damping factor alpha8     :    16.0000 
 ad hoc parameters k1-k3   :    16.0000     1.3333    -4.0000 

 Edisp/kcal,au: -0.030205077129  -0.000048134849 
 E6   /kcal   :  -0.003828544 
 E8   /kcal   :  -0.026376533 
 % E8         :  87.324833320 

-------------------------   ----------------
Dispersion correction           -0.000048135
-------------------------   ----------------


-------------------------   --------------------
FINAL SINGLE POINT ENERGY      -337.570748754807
-------------------------   --------------------

                                *** OPTIMIZATION RUN DONE ***

                            ***************************************
                            *     ORCA property calculations      *
                            ***************************************

                                    ---------------------
                                    Active property flags
                                    ---------------------
   (+) Dipole Moment


------------------------------------------------------------------------------
                       ORCA ELECTRIC PROPERTIES CALCULATION
------------------------------------------------------------------------------

Dipole Moment Calculation                       ... on
Quadrupole Moment Calculation                   ... off
Polarizability Calculation                      ... off
GBWName                                         ... /beegfs/scratch/ispackman/PFAS_EPR_calcs/benchmark/JChemEd_CF3_radical/CF3_radical_95.5_degrees_IN-PROGRESS/CF3_radical_95.5_degrees.gbw
Electron density                                ... /beegfs/scratch/ispackman/PFAS_EPR_calcs/benchmark/JChemEd_CF3_radical/CF3_radical_95.5_degrees_IN-PROGRESS/CF3_radical_95.5_degrees.scfp
The origin for moment calculation is the CENTER OF MASS  = (-0.000015, -0.000000 -1.069218)

-------------
DIPOLE MOMENT
-------------
                                X             Y             Z
Electronic contribution:      0.00044       0.00000       0.18970
Nuclear contribution   :      0.00005       0.00000       0.34321
                        -----------------------------------------
Total Dipole Moment    :      0.00049       0.00000       0.53291
                        -----------------------------------------
Magnitude (a.u.)       :      0.53291
Magnitude (Debye)      :      1.35456



--------------------
Rotational spectrum 
--------------------
 
Rotational constants in cm-1:     0.384256     0.384174     0.216772 
Rotational constants in MHz : 11519.716888 11517.253687  6498.663393 

 Dipole components along the rotational axes: 
x,y,z [a.u.] :    -0.000000     0.000517     0.532913 
x,y,z [Debye]:    -0.000001     0.001313     1.354557 

 


           ************************************************************
           *        Program running with 18 parallel MPI-processes    *
           *              working on a common directory               *
           ************************************************************

-------------------------------------------------------------------------------
                               ORCA SCF HESSIAN
-------------------------------------------------------------------------------

                   --------- SHARK INITIALIZATION DONE ---------

Hessian of the Kohn-Sham DFT energy:
Kohn-Sham wavefunction type                      ... UKS
Hartree-Fock exchange scaling                    ...    0.196
Number of operators                              ...    2
Number of atoms                                  ...    4
Basis set dimensions                             ...  157
Integral neglect threshold                       ... 2.5e-11
Integral primitive cutoff                        ... 2.5e-12

Setting up DFT Hessian calculations              ... 

HESS GRID
---------

General Integration Accuracy     IntAcc      ... 4.629
Radial Grid Type                 RadialGrid  ... OptM3 with GC (2021)
Angular Grid (max. ang.)         AngularGrid ... 5 (Lebedev-434)
Angular grid pruning method      GridPruning ... 4 (adaptive)
Weight generation scheme         WeightScheme... Becke
Basis function cutoff            BFCut       ... 1.0000e-11
Integration weight cutoff        WCut        ... 1.0000e-14
Angular grids for H and He will be reduced by one unit
Partially contracted basis set               ... off
Rotationally invariant grid construction     ... off

Total number of grid points                  ...    39989
Total number of batches                      ...      627
Average number of points per batch           ...       63
Average number of grid points per atom       ...     9997

Building densities                               ... done   (      0.0 sec)
Calculating rho(r) on the grid                   ... done   (      0.1 sec)
Building xc-kernel on the grid                   ... done   (      0.1 sec)
                                                     done   (      0.6 sec)

Nuclear repulsion Hessian  (SHARK)               ... done   (      0.0 sec)

----------------------------------------------
Forming right-hand sides of CP-SCF equations     ...
----------------------------------------------
One electron integral derivatives  (SHARK)       ... done   (      0.0 sec)
Transforming the overlap derivative matrices     ... done   (      0.0 sec)
Making the Q(x) pseudodensities                  ... done   (      0.0 sec)
Adding the E*S(x)*S(y) terms to the Hessian      ... done   (      0.0 sec)
Calculating energy weighted overlap derivatives  ... done   (      0.0 sec)
Two electron integral derivatives (SHARK-RI)     ... done   (      2.5 sec)
Exchange-correlation integral derivatives        ... done   (      2.5 sec)
tr(F(y)Q(x)) contribution to the Hessian         ... done   (      0.0 sec)
Response fock operator R(S(x)) (SHARK-RIJCOSX)   ... done   (      0.9 sec)
XC Response fock operator R(S(x))                ... done   (      0.5 sec)
tr(F(y)S(x)) contribution to the Hessian         ... done   (      0.0 sec)
Transforming and finalizing RHSs                 ... done   (      0.0 sec)

----------------------------------------------
Solving the CP-SCF equations (RIJCOSX)           ...
----------------------------------------------
     CP-SCF ITERATION   0:   1.6181e-01 (   0.4 sec   0/ 12 done)
     CP-SCF ITERATION   1:   6.1334e-02 (   0.5 sec   0/ 12 done)
     CP-SCF ITERATION   2:   2.5324e-02 (   0.5 sec   0/ 12 done)
     CP-SCF ITERATION   3:   7.7903e-03 (   0.6 sec   0/ 12 done)
     CP-SCF ITERATION   4:   2.8168e-03 (   0.5 sec   0/ 12 done)
     CP-SCF ITERATION   5:   1.2827e-03 (   0.5 sec   1/ 12 done)
     CP-SCF ITERATION   6:   4.6305e-04 (   0.5 sec   2/ 12 done)
     CP-SCF ITERATION   7:   1.2875e-04 (   0.4 sec   8/ 12 done)
     CP-SCF ITERATION   8:   4.1548e-05 (   0.4 sec  12/ 12 done)
                    *** THE CP-SCF HAS CONVERGED ***

                                                 ... done   (      4.5 sec)
Forming perturbed density Hessian contributions  ... done   (      0.0 sec)
2nd integral derivative contribs (SHARK-RI)      ... done   (      6.6 sec)
Exchange-correlation Hessian                     ... done   (      1.0 sec)
Dispersion correction in the Hessian             ... done   (      0.1 sec)
Dipole derivatives                               ... (center of mass: -0.000015, -0.000000 -1.069218)done   (      0.2 sec)

Total SCF Hessian time: 0 days 0 hours 0 min 20 sec 

Writing the Hessian file to the disk             ... done


Maximum memory used throughout the entire SCFHESS-calculation: 145.3 MB

-----------------------
VIBRATIONAL FREQUENCIES
-----------------------

Scaling factor for frequencies =  1.000000000  (already applied!)

   0:         0.00 cm**-1
   1:         0.00 cm**-1
   2:         0.00 cm**-1
   3:         0.00 cm**-1
   4:         0.00 cm**-1
   5:         0.00 cm**-1
   6:       606.06 cm**-1
   7:       606.69 cm**-1
   8:       805.50 cm**-1
   9:       968.96 cm**-1
  10:       969.94 cm**-1
  11:      1050.92 cm**-1


------------
NORMAL MODES
------------

These modes are the Cartesian displacements weighted by the diagonal matrix
M(i,i)=1/sqrt(m[i]) where m[i] is the mass of the displaced atom
Thus, these vectors are normalized but *not* orthogonal

                  0          1          2          3          4          5    
      0       0.000000   0.000000   0.000000   0.000000   0.000000   0.000000
      1       0.000000   0.000000   0.000000   0.000000   0.000000   0.000000
      2       0.000000   0.000000   0.000000   0.000000   0.000000   0.000000
      3       0.000000   0.000000   0.000000   0.000000   0.000000   0.000000
      4       0.000000   0.000000   0.000000   0.000000   0.000000   0.000000
      5       0.000000   0.000000   0.000000   0.000000   0.000000   0.000000
      6       0.000000   0.000000   0.000000   0.000000   0.000000   0.000000
      7       0.000000   0.000000   0.000000   0.000000   0.000000   0.000000
      8       0.000000   0.000000   0.000000   0.000000   0.000000   0.000000
      9       0.000000   0.000000   0.000000   0.000000   0.000000   0.000000
     10       0.000000   0.000000   0.000000   0.000000   0.000000   0.000000
     11       0.000000   0.000000   0.000000   0.000000   0.000000   0.000000
                  6          7          8          9         10         11    
      0       0.288722   0.000019   0.001062  -0.000372   0.876772   0.003454
      1      -0.000018   0.288359   0.000001  -0.876852  -0.000373   0.000003
      2      -0.000416  -0.000000   0.608630  -0.000003   0.002551  -0.814508
      3       0.485699   0.000031  -0.440338   0.000133  -0.316435  -0.289221
      4       0.000040  -0.607800   0.000000   0.051714   0.000022   0.000000
      5       0.074009   0.000005  -0.128026  -0.000095   0.223894   0.172558
      6      -0.334087  -0.473698   0.219833  -0.115210  -0.118990   0.143519
      7      -0.473970   0.212715  -0.380568   0.251276   0.116908  -0.248323
      8      -0.036877   0.063902  -0.128382  -0.194316  -0.112836   0.171198
      9      -0.334149   0.473655   0.219833   0.115312  -0.118892   0.143518
     10       0.473943   0.212777   0.380568   0.251378  -0.116694   0.248321
     11      -0.036869  -0.063907  -0.128382   0.194413  -0.112671   0.171196


-----------
IR SPECTRUM
-----------

 Mode   freq       eps      Int      T**2         TX        TY        TZ
       cm**-1   L/(mol*cm) km/mol    a.u.
----------------------------------------------------------------------------
  6:    606.06   0.000296    1.50  0.000152  ( 0.012348 -0.000001 -0.000021)
  7:    606.69   0.000293    1.48  0.000151  ( 0.000001  0.012285 -0.000000)
  8:    805.50   0.003252   16.43  0.001260  ( 0.000167  0.000000  0.035492)
  9:    968.96   0.055489  280.42  0.017871  (-0.000057 -0.133682 -0.000000)
 10:    969.94   0.055524  280.60  0.017864  ( 0.133656 -0.000057  0.000164)
 11:   1050.92   0.008278   41.83  0.002458  ( 0.000551  0.000000 -0.049577)

* The epsilon (eps) is given for a Dirac delta lineshape.
** The dipole moment derivative (T) already includes vibrational overlap.

The first frequency considered to be a vibration is 6
The total number of vibrations considered is 6


--------------------------
THERMOCHEMISTRY AT 298.15K
--------------------------

Temperature         ... 298.15 K
Pressure            ... 1.00 atm
Total Mass          ... 69.00 AMU

Throughout the following assumptions are being made:
  (1) The electronic state is orbitally nondegenerate
      but the spin degeneracy is treated
  (2) There are no thermally accessible electronically excited states
  (3) Hindered rotations indicated by low frequency modes are not
      treated as such but are treated as vibrations and this may
      cause some error
  (4) All equations used are the standard statistical mechanics
      equations for an ideal gas
  (5) All vibrations are strictly harmonic

freq.     606.06  E(vib)   ...       0.10 
freq.     606.69  E(vib)   ...       0.10 
freq.     805.50  E(vib)   ...       0.05 
freq.     968.96  E(vib)   ...       0.03 
freq.     969.94  E(vib)   ...       0.03 
freq.    1050.92  E(vib)   ...       0.02 

------------
INNER ENERGY
------------

The inner energy is: U= E(el) + E(ZPE) + E(vib) + E(rot) + E(trans)
    E(el)   - is the total energy from the electronic structure calculation
              = E(kin-el) + E(nuc-el) + E(el-el) + E(nuc-nuc)
    E(ZPE)  - the the zero temperature vibrational energy from the frequency calculation
    E(vib)  - the the finite temperature correction to E(ZPE) due to population
              of excited vibrational states
    E(rot)  - is the rotational thermal energy
    E(trans)- is the translational thermal energy

Summary of contributions to the inner energy U:
Electronic energy                ...   -337.57074875 Eh
Zero point energy                ...      0.01140921 Eh       7.16 kcal/mol
Thermal vibrational correction   ...      0.00050296 Eh       0.32 kcal/mol
Thermal rotational correction    ...      0.00141627 Eh       0.89 kcal/mol
Thermal translational correction ...      0.00141627 Eh       0.89 kcal/mol
-----------------------------------------------------------------------
Total thermal energy                   -337.55600404 Eh


Summary of corrections to the electronic energy:
(perhaps to be used in another calculation)
Total thermal correction                  0.00333550 Eh       2.09 kcal/mol
Non-thermal (ZPE) correction              0.01140921 Eh       7.16 kcal/mol
-----------------------------------------------------------------------
Total correction                          0.01474471 Eh       9.25 kcal/mol


--------
ENTHALPY
--------

The enthalpy is H = U + kB*T
                kB is Boltzmann's constant
Total free energy                 ...   -337.55600404 Eh 
Thermal Enthalpy correction       ...      0.00094421 Eh       0.59 kcal/mol
-----------------------------------------------------------------------
Total Enthalpy                    ...   -337.55505983 Eh


Note: Rotational entropy computed according to Herzberg 
Infrared and Raman Spectra, Chapter V,1, Van Nostrand Reinhold, 1945 
Point Group:  Cs, Symmetry Number:   1  
Rotational constants in cm-1:     0.384256     0.384174     0.216772 

Vibrational entropy computed according to the QRRHO of S. Grimme
Chem.Eur.J. 2012 18 9955


-------
ENTROPY
-------

The entropy contributions are T*S = T*(S(el)+S(vib)+S(rot)+S(trans))
     S(el)   - electronic entropy
     S(vib)  - vibrational entropy
     S(rot)  - rotational entropy
     S(trans)- translational entropy
The entropies will be listed as multiplied by the temperature to get
units of energy

Electronic entropy                ...      0.00065446 Eh      0.41 kcal/mol
Vibrational entropy               ...      0.00065071 Eh      0.41 kcal/mol
Rotational entropy                ...      0.01113575 Eh      6.99 kcal/mol
Translational entropy             ...      0.01834582 Eh     11.51 kcal/mol
-----------------------------------------------------------------------
Final entropy term                ...      0.03078673 Eh     19.32 kcal/mol

In case the symmetry of your molecule has not been determined correctly
or in case you have a reason to use a different symmetry number we print 
out the resulting rotational entropy values for sn=1,12 :
 --------------------------------------------------------
|  sn= 1 | S(rot)=       0.01113575 Eh      6.99 kcal/mol|
|  sn= 2 | S(rot)=       0.01048130 Eh      6.58 kcal/mol|
|  sn= 3 | S(rot)=       0.01009846 Eh      6.34 kcal/mol|
|  sn= 4 | S(rot)=       0.00982684 Eh      6.17 kcal/mol|
|  sn= 5 | S(rot)=       0.00961615 Eh      6.03 kcal/mol|
|  sn= 6 | S(rot)=       0.00944401 Eh      5.93 kcal/mol|
|  sn= 7 | S(rot)=       0.00929846 Eh      5.83 kcal/mol|
|  sn= 8 | S(rot)=       0.00917238 Eh      5.76 kcal/mol|
|  sn= 9 | S(rot)=       0.00906117 Eh      5.69 kcal/mol|
|  sn=10 | S(rot)=       0.00896169 Eh      5.62 kcal/mol|
|  sn=11 | S(rot)=       0.00887170 Eh      5.57 kcal/mol|
|  sn=12 | S(rot)=       0.00878955 Eh      5.52 kcal/mol|
 --------------------------------------------------------


-------------------
GIBBS FREE ENERGY
-------------------

The Gibbs free energy is G = H - T*S

Total enthalpy                    ...   -337.55505983 Eh 
Total entropy correction          ...     -0.03078673 Eh    -19.32 kcal/mol
-----------------------------------------------------------------------
Final Gibbs free energy         ...   -337.58584657 Eh

For completeness - the Gibbs free energy minus the electronic energy
G-E(el)                           ...     -0.01509781 Eh     -9.47 kcal/mol


Timings for individual modules:

Sum of individual times         ...      106.924 sec (=   1.782 min)
GTO integral calculation        ...       13.992 sec (=   0.233 min)  13.1 %
SCF iterations                  ...       55.746 sec (=   0.929 min)  52.1 %
SCF Gradient evaluation         ...       14.354 sec (=   0.239 min)  13.4 %
Geometry relaxation             ...        0.212 sec (=   0.004 min)   0.2 %
Analytical frequency calculation...       22.620 sec (=   0.377 min)  21.2 %
                             ****ORCA TERMINATED NORMALLY****
TOTAL RUN TIME: 0 days 0 hours 2 minutes 1 seconds 57 msec

slurmID:    32260082
totalRuntime[s]:    121.093054305
