
                                 *****************
                                 * O   R   C   A *
                                 *****************

                                            #,                                       
                                            ###                                      
                                            ####                                     
                                            #####                                    
                                            ######                                   
                                           ########,                                 
                                     ,,################,,,,,                         
                               ,,#################################,,                 
                          ,,##########################################,,             
                       ,#########################################, ''#####,          
                    ,#############################################,,   '####,        
                  ,##################################################,,,,####,       
                ,###########''''           ''''###############################       
              ,#####''   ,,,,##########,,,,          '''####'''          '####       
            ,##' ,,,,###########################,,,                        '##       
           ' ,,###''''                  '''############,,,                           
         ,,##''                                '''############,,,,        ,,,,,,###''
      ,#''                                            '''#######################'''  
     '                                                          ''''####''''         
             ,#######,   #######,   ,#######,      ##                                
            ,#'     '#,  ##    ##  ,#'     '#,    #''#        ######   ,####,        
            ##       ##  ##   ,#'  ##            #'  '#       #        #'  '#        
            ##       ##  #######   ##           ,######,      #####,   #    #        
            '#,     ,#'  ##    ##  '#,     ,#' ,#      #,         ##   #,  ,#        
             '#######'   ##     ##  '#######'  #'      '#     #####' # '####'        



                  #######################################################
                  #                        -***-                        #
                  #          Department of theory and spectroscopy      #
                  #    Directorship and core code : Frank Neese         #
                  #        Max Planck Institute fuer Kohlenforschung    #
                  #                Kaiser Wilhelm Platz 1               #
                  #                 D-45470 Muelheim/Ruhr               #
                  #                      Germany                        #
                  #                                                     #
                  #                  All rights reserved                #
                  #                        -***-                        #
                  #######################################################


                         Program Version 5.0.4 -  RELEASE  -


 With contributions from (in alphabetic order):
   Daniel Aravena         : Magnetic Suceptibility
   Michael Atanasov       : Ab Initio Ligand Field Theory (pilot matlab implementation)
   Alexander A. Auer      : GIAO ZORA, VPT2 properties, NMR spectrum
   Ute Becker             : Parallelization
   Giovanni Bistoni       : ED, misc. LED, open-shell LED, HFLD
   Martin Brehm           : Molecular dynamics
   Dmytro Bykov           : SCF Hessian
   Vijay G. Chilkuri      : MRCI spin determinant printing, contributions to CSF-ICE
   Dipayan Datta          : RHF DLPNO-CCSD density
   Achintya Kumar Dutta   : EOM-CC, STEOM-CC
   Dmitry Ganyushin       : Spin-Orbit,Spin-Spin,Magnetic field MRCI
   Miquel Garcia          : C-PCM and meta-GGA Hessian, CC/C-PCM, Gaussian charge scheme
   Yang Guo               : DLPNO-NEVPT2, F12-NEVPT2, CIM, IAO-localization
   Andreas Hansen         : Spin unrestricted coupled pair/coupled cluster methods
   Benjamin Helmich-Paris : MC-RPA, TRAH-SCF, COSX integrals
   Lee Huntington         : MR-EOM, pCC
   Robert Izsak           : Overlap fitted RIJCOSX, COSX-SCS-MP3, EOM
   Marcus Kettner         : VPT2
   Christian Kollmar      : KDIIS, OOCD, Brueckner-CCSD(T), CCSD density, CASPT2, CASPT2-K
   Simone Kossmann        : Meta GGA functionals, TD-DFT gradient, OOMP2, MP2 Hessian
   Martin Krupicka        : Initial AUTO-CI
   Lucas Lang             : DCDCAS
   Marvin Lechner         : AUTO-CI (C++ implementation), FIC-MRCC
   Dagmar Lenk            : GEPOL surface, SMD
   Dimitrios Liakos       : Extrapolation schemes; Compound Job, initial MDCI parallelization
   Dimitrios Manganas     : Further ROCIS development; embedding schemes
   Dimitrios Pantazis     : SARC Basis sets
   Anastasios Papadopoulos: AUTO-CI, single reference methods and gradients
   Taras Petrenko         : DFT Hessian,TD-DFT gradient, ASA, ECA, R-Raman, ABS, FL, XAS/XES, NRVS
   Peter Pinski           : DLPNO-MP2, DLPNO-MP2 Gradient
   Christoph Reimann      : Effective Core Potentials
   Marius Retegan         : Local ZFS, SOC
   Christoph Riplinger    : Optimizer, TS searches, QM/MM, DLPNO-CCSD(T), (RO)-DLPNO pert. Triples
   Tobias Risthaus        : Range-separated hybrids, TD-DFT gradient, RPA, STAB
   Michael Roemelt        : Original ROCIS implementation
   Masaaki Saitow         : Open-shell DLPNO-CCSD energy and density
   Barbara Sandhoefer     : DKH picture change effects
   Avijit Sen             : IP-ROCIS
   Kantharuban Sivalingam : CASSCF convergence, NEVPT2, FIC-MRCI
   Bernardo de Souza      : ESD, SOC TD-DFT
   Georgi Stoychev        : AutoAux, RI-MP2 NMR, DLPNO-MP2 response
   Willem Van den Heuvel  : Paramagnetic NMR
   Boris Wezisla          : Elementary symmetry handling
   Frank Wennmohs         : Technical directorship


 We gratefully acknowledge several colleagues who have allowed us to
 interface, adapt or use parts of their codes:
   Stefan Grimme, W. Hujo, H. Kruse, P. Pracht,  : VdW corrections, initial TS optimization,
                  C. Bannwarth, S. Ehlert          DFT functionals, gCP, sTDA/sTD-DF
   Ed Valeev, F. Pavosevic, A. Kumar             : LibInt (2-el integral package), F12 methods
   Garnet Chan, S. Sharma, J. Yang, R. Olivares  : DMRG
   Ulf Ekstrom                                   : XCFun DFT Library
   Mihaly Kallay                                 : mrcc  (arbitrary order and MRCC methods)
   Jiri Pittner, Ondrej Demel                    : Mk-CCSD
   Frank Weinhold                                : gennbo (NPA and NBO analysis)
   Christopher J. Cramer and Donald G. Truhlar   : smd solvation model
   Lars Goerigk                                  : TD-DFT with DH, B97 family of functionals
   V. Asgeirsson, H. Jonsson                     : NEB implementation
   FAccTs GmbH                                   : IRC, NEB, NEB-TS, DLPNO-Multilevel, CI-OPT
                                                   MM, QMMM, 2- and 3-layer-ONIOM, Crystal-QMMM,
                                                   LR-CPCM, SF, NACMEs, symmetry and pop. for TD-DFT,
                                                   nearIR, NL-DFT gradient (VV10), updates on ESD,
                                                   ML-optimized integration grids
   S Lehtola, MJT Oliveira, MAL Marques          : LibXC Library
   Liviu Ungur et al                             : ANISO software


 Your calculation uses the libint2 library for the computation of 2-el integrals
 For citations please refer to: http://libint.valeyev.net

 Your ORCA version has been built with support for libXC version: 5.1.0
 For citations please refer to: https://tddft.org/programs/libxc/

 This ORCA versions uses:
   CBLAS   interface :  Fast vector & matrix operations
   LAPACKE interface :  Fast linear algebra routines
   SCALAPACK package :  Parallel linear algebra routines
   Shared memory     :  Shared parallel matrices
   BLAS/LAPACK       :  OpenBLAS 0.3.15  USE64BITINT DYNAMIC_ARCH NO_AFFINITY SkylakeX SINGLE_THREADED
        Core in use  :  SkylakeX
   Copyright (c) 2011-2014, The OpenBLAS Project


Your calculation utilizes the atom-pairwise dispersion correction
with the zero-damping scheme (D30)
Cite in your paper:
S.Grimme, J.Antony, S.Ehrlich and H.Krieg, J.Chem.Phys., 132, (2010), 154104 
   

XCFun DFT library Copyright 2009-2010 Ulf Ekstrom and contributors.
See http://admol.org/xcfun for more information.
This is free software; see the source code for copying conditions.
There is ABSOLUTELY NO WARRANTY; not even for MERCHANTABILITY or FITNESS FOR A PARTICULAR PURPOSE.
For details see the documentation.
Scientific users of this library should cite U. Ekstrom, L. Visscher, R. Bast, A. J. Thorvaldsen and K. Ruud;
J.Chem.Theor.Comp. 2010, DOI: 10.1021/ct100117s
XCFun Version 0.99 

================================================================================

----- Orbital basis set information -----
Your calculation utilizes the basis: def2-TZVPD
   F. Weigend and R. Ahlrichs, Phys. Chem. Chem. Phys. 7, 3297 (2005).
   D. Rappoport and F. Furche, J. Chem. Phys. 133 134105 (2010).

----- AuxJ basis set information -----
Your calculation utilizes the auxiliary basis: def2/J
   F. Weigend, Phys. Chem. Chem. Phys. 8, 1057 (2006).

================================================================================
                                        WARNINGS
                       Please study these warnings very carefully!
================================================================================


WARNING: Geometry Optimization
  ===> : Switching off AutoStart
         For restart on a previous wavefunction, please use MOREAD

INFO   : the flag for use of the SHARK integral package has been found!

================================================================================
                                       INPUT FILE
================================================================================
NAME = /beegfs/scratch/ispackman/PFAS_EPR_calcs/benchmark/JChemEd_CF3_radical/CF3_radical_104.5_degrees_IN-PROGRESS/CF3_radical_104.5_degrees.inp
|  1> ! UKS TightSCF wB97x-D3 def2-TZVPD xyzfile opt freq
|  2> 
|  3> # CF3 radical 104.5 degrees fixed
|  4> 
|  5> %maxcore 1000
|  6> %pal
|  7> nprocs 18
|  8> end
|  9> 
| 10> %geom Constraints
| 11>         { A * 0 * C }
| 12>     end
| 13> end
| 14> * xyz 0 2
| 15> C 0.00 0.00 0.00
| 16> F 1.2006077246 0.0000000000 -0.5364383391
| 17> F -0.6003038623 1.0397567895 -0.5364383391
| 18> F -0.6003038623 -1.0397567895 -0.5364383391
| 19> **                         ****END OF INPUT****
================================================================================

                       *****************************
                       * Geometry Optimization Run *
                       *****************************

Geometry optimization settings:
Update method            Update   .... BFGS
Choice of coordinates    CoordSys .... Z-matrix Internals
Initial Hessian          InHess   .... Almoef's Model

Convergence Tolerances:
Energy Change            TolE     ....  5.0000e-06 Eh
Max. Gradient            TolMAXG  ....  3.0000e-04 Eh/bohr
RMS Gradient             TolRMSG  ....  1.0000e-04 Eh/bohr
Max. Displacement        TolMAXD  ....  4.0000e-03 bohr
RMS Displacement         TolRMSD  ....  2.0000e-03 bohr
Strict Convergence                ....  False
------------------------------------------------------------------------------
                        ORCA OPTIMIZATION COORDINATE SETUP
------------------------------------------------------------------------------

The optimization will be done in new redundant internal coordinates
Making redundant internal coordinates   ...  (new redundants) done
Evaluating the initial hessian          ...  (Almloef) done
Evaluating the coordinates              ...  done
Calculating the B-matrix                .... done
Calculating the G-matrix                .... done
Diagonalizing the G-matrix              .... done
Imposing constraints:
 Iter   0:  RMS(Cart)=    0.0000000000 RMS(Int)=    0.0000000000
CONVERGED
Will constrain atom 0 coordinate 1 
Will constrain atom 0 coordinate 2 
Will constrain atom 1 coordinate 2 
The first mode is                       ....    1
The number of degrees of freedom        ....    6
Storing new coordinates                 .... done

    -----------------------------------------------------------------
                    Redundant Internal Coordinates


    -----------------------------------------------------------------
         Definition                    Initial Value    Approx d2E/dq
    -----------------------------------------------------------------
      1. B(F   1,C   0)                  1.3150         0.684896   
      2. B(F   2,C   0)                  1.3150         0.684896   
      3. B(F   3,C   0)                  1.3150         0.684896   
      4. A(F   2,C   0,F   3)          104.5000         0.440101 C 
      5. A(F   1,C   0,F   2)          104.5000         0.440101 C 
      6. A(F   1,C   0,F   3)          104.5000         0.440101 C 
      7. I(F   1,F   3,F   2,C   0)     65.8597         0.004912   
    -----------------------------------------------------------------

Number of atoms                         .... 4
Number of degrees of freedom            .... 7

         *************************************************************
         *                GEOMETRY OPTIMIZATION CYCLE   1            *
         *************************************************************
---------------------------------
CARTESIAN COORDINATES (ANGSTROEM)
---------------------------------
  C      0.000000    0.000000    0.000000
  F      1.200608    0.000000   -0.536438
  F     -0.600304    1.039757   -0.536438
  F     -0.600304   -1.039757   -0.536438

----------------------------
CARTESIAN COORDINATES (A.U.)
----------------------------
  NO LB      ZA    FRAG     MASS         X           Y           Z
   0 C     6.0000    0    12.011    0.000000    0.000000    0.000000
   1 F     9.0000    0    18.998    2.268820    0.000000   -1.013722
   2 F     9.0000    0    18.998   -1.134410    1.964856   -1.013722
   3 F     9.0000    0    18.998   -1.134410   -1.964856   -1.013722

--------------------------------
INTERNAL COORDINATES (ANGSTROEM)
--------------------------------
 C      0   0   0     0.000000000000     0.00000000     0.00000000
 F      1   0   0     1.315000000010     0.00000000     0.00000000
 F      1   2   0     1.315000000023   104.50000000     0.00000000
 F      1   2   3     1.315000000023   104.50000000   109.51230152

---------------------------
INTERNAL COORDINATES (A.U.)
---------------------------
 C      0   0   0     0.000000000000     0.00000000     0.00000000
 F      1   0   0     2.484989866125     0.00000000     0.00000000
 F      1   2   0     2.484989866150   104.50000000     0.00000000
 F      1   2   3     2.484989866150   104.50000000   109.51230152

---------------------
BASIS SET INFORMATION
---------------------
There are 2 groups of distinct atoms

 Group   1 Type C   : 12s6p3d1f contracted to 6s3p3d1f pattern {621111/411/111/1}
 Group   2 Type F   : 12s7p3d1f contracted to 6s4p3d1f pattern {621111/4111/111/1}

Atom   0C    basis set group =>   1
Atom   1F    basis set group =>   2
Atom   2F    basis set group =>   2
Atom   3F    basis set group =>   2
---------------------------------
AUXILIARY/J BASIS SET INFORMATION
---------------------------------
There are 2 groups of distinct atoms

 Group   1 Type C   : 12s5p4d2f1g contracted to 6s4p3d1f1g pattern {711111/2111/211/2/1}
 Group   2 Type F   : 12s5p4d2f1g contracted to 6s4p3d1f1g pattern {711111/2111/211/2/1}

Atom   0C    basis set group =>   1
Atom   1F    basis set group =>   2
Atom   2F    basis set group =>   2
Atom   3F    basis set group =>   2


           ************************************************************
           *        Program running with 18 parallel MPI-processes    *
           *              working on a common directory               *
           ************************************************************
------------------------------------------------------------------------------
                           ORCA GTO INTEGRAL CALCULATION
                           -- RI-GTO INTEGRALS CHOSEN --
------------------------------------------------------------------------------
------------------------------------------------------------------------------
                   ___                                                        
                  /   \      - P O W E R E D   B Y -                         
                 /     \                                                     
                 |  |  |   _    _      __       _____    __    __             
                 |  |  |  | |  | |    /  \     |  _  \  |  |  /  |          
                  \  \/   | |  | |   /    \    | | | |  |  | /  /          
                 / \  \   | |__| |  /  /\  \   | |_| |  |  |/  /          
                |  |  |   |  __  | /  /__\  \  |    /   |      \           
                |  |  |   | |  | | |   __   |  |    \   |  |\   \          
                \     /   | |  | | |  |  |  |  | |\  \  |  | \   \       
                 \___/    |_|  |_| |__|  |__|  |_| \__\ |__|  \__/        
                                                                              
                      - O R C A' S   B I G   F R I E N D -                    
                                      &                                       
                       - I N T E G R A L  F E E D E R -                       
                                                                              
 v1 FN, 2020, v2 2021                                                         
------------------------------------------------------------------------------


Reading SHARK input file /beegfs/scratch/ispackman/PFAS_EPR_calcs/benchmark/JChemEd_CF3_radical/CF3_radical_104.5_degrees_IN-PROGRESS/CF3_radical_104.5_degrees.SHARKINP.tmp ... ok
----------------------
SHARK INTEGRAL PACKAGE
----------------------

Number of atoms                             ...      4
Number of basis functions                   ...    157
Number of shells                            ...     55
Maximum angular momentum                    ...      3
Integral batch strategy                     ... SHARK/LIBINT Hybrid
RI-J (if used) integral strategy            ... SPLIT-RIJ (Revised 2003 algorithm where possible)
Printlevel                                  ...      1
Contraction scheme used                     ... SEGMENTED contraction
Coulomb Range Separation                    ... NOT USED
Exchange Range Separation                   ... Long Range
   Mu parameter                             ...  0.250000
   Scaling (regular/separated)              ...  0.195728  0.804272
Finite Nucleus Model                        ... NOT USED
Auxiliary Coulomb fitting basis             ... AVAILABLE
   # of basis functions in Aux-J            ...    196
   # of shells in Aux-J                     ...     60
   Maximum angular momentum in Aux-J        ...      4
Auxiliary J/K fitting basis                 ... NOT available
Auxiliary Correlation fitting basis         ... NOT available
Auxiliary 'external' fitting basis          ... NOT available
Integral threshold                          ...     2.500000e-11
Primitive cut-off                           ...     2.500000e-12
Primitive pair pre-selection threshold      ...     2.500000e-12

Calculating pre-screening integrals         ... done (  0.0 sec) Dimension = 55
Organizing shell pair data                  ... done (  0.0 sec)
Shell pair information
Total number of shell pairs                 ...      1540
Shell pairs after pre-screening             ...      1504
Total number of primitive shell pairs       ...      4274
Primitive shell pairs kept                  ...      3545
          la=0 lb=0:    282 shell pairs
          la=1 lb=0:    354 shell pairs
          la=1 lb=1:    120 shell pairs
          la=2 lb=0:    276 shell pairs
          la=2 lb=1:    180 shell pairs
          la=2 lb=2:     78 shell pairs
          la=3 lb=0:     96 shell pairs
          la=3 lb=1:     60 shell pairs
          la=3 lb=2:     48 shell pairs
          la=3 lb=3:     10 shell pairs

Calculating one electron integrals          ... done (  0.0 sec)
Calculating RI/J V-Matrix + Cholesky decomp.... done (  1.4 sec)
Calculating Nuclear repulsion               ... done (  0.0 sec) ENN=    127.028018618004 Eh

SHARK setup successfully completed in   6.7 seconds

Maximum memory used throughout the entire GTOINT-calculation: 15.2 MB


           ************************************************************
           *        Program running with 18 parallel MPI-processes    *
           *              working on a common directory               *
           ************************************************************
-------------------------------------------------------------------------------
                                 ORCA SCF
-------------------------------------------------------------------------------

------------
SCF SETTINGS
------------
Hamiltonian:
 Density Functional     Method          .... DFT(GTOs)
 Exchange Functional    Exchange        .... WB97X-D3
 Correlation Functional Correlation     .... WB97X-D3
 Gradients option       PostSCFGGA      .... off
 Hybrid DFT is turned on
   Fraction HF Exchange ScalHFX         ....  0.195728
   Scaling of DF-GGA-X  ScalDFX         ....  0.000000
   Scaling of DF-GGA-C  ScalDFC         ....  1.000000
   Scaling of DF-LDA-C  ScalLDAC        ....  1.000000
   Perturbative correction              ....  0.000000
   Density functional embedding theory  .... OFF
 Long-range corrected/Screened/Range-Separated Hybrid DFT is turned on
   Amount of maximum screened exact exchange              ....  0.804272
   Range separation parameter mu (erf(mu*r12)/r12)        ....  0.250000
 RI-approximation to the Coulomb term is turned on
   Number of AuxJ basis functions       .... 196
   RIJ-COSX (HFX calculated with COS-X)).... on


General Settings:
 Integral files         IntName         .... /beegfs/scratch/ispackman/PFAS_EPR_calcs/benchmark/JChemEd_CF3_radical/CF3_radical_104.5_degrees_IN-PROGRESS/CF3_radical_104.5_degrees
 Hartree-Fock type      HFTyp           .... UHF
 Total Charge           Charge          ....    0
 Multiplicity           Mult            ....    2
 Number of Electrons    NEL             ....   33
 Basis Dimension        Dim             ....  157
 Nuclear Repulsion      ENuc            ....    127.0280186180 Eh

Convergence Acceleration:
 DIIS                   CNVDIIS         .... on
   Start iteration      DIISMaxIt       ....    12
   Startup error        DIISStart       ....  0.200000
   # of expansion vecs  DIISMaxEq       ....     5
   Bias factor          DIISBfac        ....   1.050
   Max. coefficient     DIISMaxC        ....  10.000
 Trust-Rad. Augm. Hess. CNVTRAH         .... auto
   Auto Start mean grad. ratio tolernc. ....  1.125000
   Auto Start start iteration           ....    20
   Auto Start num. interpolation iter.  ....    10
   Max. Number of Micro iterations      ....    16
   Max. Number of Macro iterations      .... Maxiter - #DIIS iter
   Number of Davidson start vectors     ....     2
   Converg. threshold I  (grad. norm)   ....   1.000e-05
   Converg. threshold II (energy diff.) ....   1.000e-08
   Grad. Scal. Fac. for Micro threshold ....   0.100
   Minimum threshold for Micro iter.    ....   0.010
   NR start threshold (gradient norm)   ....   0.001
   Initial trust radius                 ....   0.400
   Minimum AH scaling param. (alpha)    ....   1.000
   Maximum AH scaling param. (alpha)    .... 1000.000
   Orbital update algorithm             .... Taylor
   White noise on init. David. guess    .... on
   Maximum white noise                  ....   0.010
   Quad. conv. algorithm                .... NR
 SOSCF                  CNVSOSCF        .... off
 Level Shifting         CNVShift        .... on
   Level shift para.    LevelShift      ....    0.2500
   Turn off err/grad.   ShiftErr        ....    0.0010
 Zerner damping         CNVZerner       .... off
 Static damping         CNVDamp         .... on
   Fraction old density DampFac         ....    0.7000
   Max. Damping (<1)    DampMax         ....    0.9800
   Min. Damping (>=0)   DampMin         ....    0.0000
   Turn off err/grad.   DampErr         ....    0.1000
 Fernandez-Rico         CNVRico         .... off

SCF Procedure:
 Maximum # iterations   MaxIter         ....   125
 SCF integral mode      SCFMode         .... Direct
   Integral package                     .... SHARK and LIBINT hybrid scheme
 Reset frequency        DirectResetFreq ....    20
 Integral Threshold     Thresh          ....  2.500e-11 Eh
 Primitive CutOff       TCut            ....  2.500e-12 Eh

Convergence Tolerance:
 Convergence Check Mode ConvCheckMode   .... Total+1el-Energy
 Convergence forced     ConvForced      .... 0
 Energy Change          TolE            ....  1.000e-08 Eh
 1-El. energy change                    ....  1.000e-05 Eh
 DIIS Error             TolErr          ....  5.000e-07


Diagonalization of the overlap matrix:
Smallest eigenvalue                        ... 3.427e-04
Time for diagonalization                   ...    0.008 sec
Threshold for overlap eigenvalues          ... 1.000e-08
Number of eigenvalues below threshold      ... 0
Time for construction of square roots      ...    0.039 sec
Total time needed                          ...    0.048 sec

Time for model grid setup =    0.068 sec

------------------------------
INITIAL GUESS: MODEL POTENTIAL
------------------------------
Loading Hartree-Fock densities                     ... done
Calculating cut-offs                               ... done
Initializing the effective Hamiltonian             ... done
Setting up the integral package (SHARK)            ... done
Starting the Coulomb interaction                   ... done (   0.6 sec)
Reading the grid                                   ... done
Mapping shells                                     ... done
Starting the XC term evaluation                    ... done (   0.0 sec)
  promolecular density results
     # of electrons  =     33.000287403
     EX              =    -35.100370752
     EC              =     -1.146834474
     EX+EC           =    -36.247205226
Transforming the Hamiltonian                       ... done (   0.0 sec)
Diagonalizing the Hamiltonian                      ... done (   0.0 sec)
Back transforming the eigenvectors                 ... done (   0.0 sec)
Now organizing SCF variables                       ... done
                      ------------------
                      INITIAL GUESS DONE (   0.8 sec)
                      ------------------
-------------------
DFT GRID GENERATION
-------------------

General Integration Accuracy     IntAcc      ... 4.388
Radial Grid Type                 RadialGrid  ... OptM3 with GC (2021)
Angular Grid (max. ang.)         AngularGrid ... 4 (Lebedev-302)
Angular grid pruning method      GridPruning ... 4 (adaptive)
Weight generation scheme         WeightScheme... Becke
Basis function cutoff            BFCut       ... 1.0000e-11
Integration weight cutoff        WCut        ... 1.0000e-14
Angular grids for H and He will be reduced by one unit
Partially contracted basis set               ... off
Rotationally invariant grid construction     ... off

Total number of grid points                  ...    25777
Total number of batches                      ...      405
Average number of points per batch           ...       63
Average number of grid points per atom       ...     6444
Time for grid setup =    0.152 sec

--------------------
COSX GRID GENERATION
--------------------

GRIDX 1
-------
General Integration Accuracy     IntAcc      ... 3.816
Radial Grid Type                 RadialGrid  ... OptM3 with GC (2021)
Angular Grid (max. ang.)         AngularGrid ... 1 (Lebedev-50)
Angular grid pruning method      GridPruning ... 4 (adaptive)
Weight generation scheme         WeightScheme... Becke
Basis function cutoff            BFCut       ... 1.0000e-11
Integration weight cutoff        WCut        ... 1.0000e-14
Angular grids for H and He will be reduced by one unit
Partially contracted basis set               ... on
Rotationally invariant grid construction     ... off

Total number of grid points                  ...     3270
Total number of batches                      ...       53
Average number of points per batch           ...       61
Average number of grid points per atom       ...      818
UseSFitting                                  ... on

GRIDX 2
-------
General Integration Accuracy     IntAcc      ... 4.020
Radial Grid Type                 RadialGrid  ... OptM3 with GC (2021)
Angular Grid (max. ang.)         AngularGrid ... 2 (Lebedev-110)
Angular grid pruning method      GridPruning ... 4 (adaptive)
Weight generation scheme         WeightScheme... Becke
Basis function cutoff            BFCut       ... 1.0000e-11
Integration weight cutoff        WCut        ... 1.0000e-14
Angular grids for H and He will be reduced by one unit
Partially contracted basis set               ... on
Rotationally invariant grid construction     ... off

Total number of grid points                  ...     9111
Total number of batches                      ...      144
Average number of points per batch           ...       63
Average number of grid points per atom       ...     2278
UseSFitting                                  ... on

GRIDX 3
-------
General Integration Accuracy     IntAcc      ... 4.338
Radial Grid Type                 RadialGrid  ... OptM3 with GC (2021)
Angular Grid (max. ang.)         AngularGrid ... 3 (Lebedev-194)
Angular grid pruning method      GridPruning ... 4 (adaptive)
Weight generation scheme         WeightScheme... Becke
Basis function cutoff            BFCut       ... 1.0000e-11
Integration weight cutoff        WCut        ... 1.0000e-14
Angular grids for H and He will be reduced by one unit
Partially contracted basis set               ... on
Rotationally invariant grid construction     ... off

Total number of grid points                  ...    19669
Total number of batches                      ...      309
Average number of points per batch           ...       63
Average number of grid points per atom       ...     4917
UseSFitting                                  ... on

Time for X-Grid setup             =    0.339 sec

--------------
SCF ITERATIONS
--------------
ITER       Energy         Delta-E        Max-DP      RMS-DP      [F,P]     Damp
               ***  Starting incremental Fock matrix formation  ***
  0   -337.5606982700   0.000000000000 0.01641768  0.00038521  0.0651855 0.7000
  1   -337.5859220919  -0.025223821831 0.00951064  0.00025844  0.0310468 0.7000
                               ***Turning on DIIS***
  2   -337.5965469041  -0.010624812200 0.02206697  0.00049847  0.0163252 0.0000
  3   -337.6156587926  -0.019111888527 0.00637899  0.00014566  0.0146623 0.0000
  4   -337.6186446870  -0.002985894411 0.00512193  0.00008729  0.0035767 0.0000
  5   -337.6188772997  -0.000232612661 0.00290870  0.00005310  0.0021748 0.0000
  6   -337.6189492353  -0.000071935600 0.00315240  0.00005014  0.0008952 0.0000
               *** Restarting incremental Fock matrix formation ***
                                   *** Resetting DIIS ***
  7   -337.6189789419  -0.000029706658 0.00053170  0.00000818  0.0001660 0.0000
  8   -337.6189796851  -0.000000743213 0.00013236  0.00000234  0.0000848 0.0000
  9   -337.6189798584  -0.000000173261 0.00006640  0.00000136  0.0000785 0.0000
 10   -337.6189799262  -0.000000067815 0.00004243  0.00000054  0.0000138 0.0000
                 **** Energy Check signals convergence ****

               *****************************************************
               *                     SUCCESS                       *
               *           SCF CONVERGED AFTER  11 CYCLES          *
               *****************************************************

Old exchange energy                            =    -10.540548093 Eh
New exchange energy                            =    -10.540522896 Eh
Exchange energy change after final integration =      0.000025196 Eh
Total energy after final integration           =   -337.618954733 Eh
Final COS-X integration done in                =     0.405 sec

----------------
TOTAL SCF ENERGY
----------------

Total Energy       :         -337.61895473 Eh           -9187.07882 eV

Components:
Nuclear Repulsion  :          127.02801862 Eh            3456.60812 eV
Electronic Energy  :         -464.64697335 Eh          -12643.68694 eV
One Electron Energy:         -720.93319752 Eh          -19617.58964 eV
Two Electron Energy:          256.28622417 Eh            6973.90271 eV
Max COSX asymmetry :            0.00000039 Eh               0.00001 eV

Virial components:
Potential Energy   :         -674.33566617 Eh          -18349.60635 eV
Kinetic Energy     :          336.71671144 Eh            9162.52753 eV
Virial Ratio       :            2.00267953


DFT components:
N(Alpha)           :       16.999881907121 electrons
N(Beta)            :       15.999900397295 electrons
N(Total)           :       32.999782304416 electrons
E(XC)              :      -26.206307045518 Eh       
DFET-embed. en.    :        0.000000000000 Eh       

---------------
SCF CONVERGENCE
---------------

  Last Energy change         ...   -2.4366e-09  Tolerance :   1.0000e-08
  Last MAX-Density change    ...    0.0000e+00  Tolerance :   1.0000e-07
  Last RMS-Density change    ...    0.0000e+00  Tolerance :   5.0000e-09
  Last DIIS Error            ...    2.1486e-06  Tolerance :   5.0000e-07

             **** THE GBW FILE WAS UPDATED (/beegfs/scratch/ispackman/PFAS_EPR_calcs/benchmark/JChemEd_CF3_radical/CF3_radical_104.5_degrees_IN-PROGRESS/CF3_radical_104.5_degrees.gbw) ****
             **** DENSITY /beegfs/scratch/ispackman/PFAS_EPR_calcs/benchmark/JChemEd_CF3_radical/CF3_radical_104.5_degrees_IN-PROGRESS/CF3_radical_104.5_degrees.scfp WAS UPDATED ****
             **** ENERGY FILE WAS UPDATED (/beegfs/scratch/ispackman/PFAS_EPR_calcs/benchmark/JChemEd_CF3_radical/CF3_radical_104.5_degrees_IN-PROGRESS/CF3_radical_104.5_degrees.en.tmp) ****
----------------------
UHF SPIN CONTAMINATION
----------------------

Warning: in a DFT calculation there is little theoretical justification to 
         calculate <S**2> as in Hartree-Fock theory. We will do it anyways
         but you should keep in mind that the values have only limited relevance

Expectation value of <S**2>     :     0.752070
Ideal value S*(S+1) for S=0.5   :     0.750000
Deviation                       :     0.002070

             **** THE GBW FILE WAS UPDATED (/beegfs/scratch/ispackman/PFAS_EPR_calcs/benchmark/JChemEd_CF3_radical/CF3_radical_104.5_degrees_IN-PROGRESS/CF3_radical_104.5_degrees.gbw) ****
             **** DENSITY /beegfs/scratch/ispackman/PFAS_EPR_calcs/benchmark/JChemEd_CF3_radical/CF3_radical_104.5_degrees_IN-PROGRESS/CF3_radical_104.5_degrees.scfp WAS UPDATED ****
----------------
ORBITAL ENERGIES
----------------
                 SPIN UP ORBITALS
  NO   OCC          E(Eh)            E(eV) 
   0   1.0000     -24.844851      -676.0628 
   1   1.0000     -24.844848      -676.0627 
   2   1.0000     -24.844837      -676.0624 
   3   1.0000     -10.547886      -287.0226 
   4   1.0000      -1.479509       -40.2595 
   5   1.0000      -1.373493       -37.3746 
   6   1.0000      -1.373486       -37.3745 
   7   1.0000      -0.838842       -22.8260 
   8   1.0000      -0.728578       -19.8256 
   9   1.0000      -0.728570       -19.8254 
  10   1.0000      -0.705211       -19.1898 
  11   1.0000      -0.606904       -16.5147 
  12   1.0000      -0.606900       -16.5146 
  13   1.0000      -0.556440       -15.1415 
  14   1.0000      -0.556428       -15.1412 
  15   1.0000      -0.534191       -14.5361 
  16   1.0000      -0.414323       -11.2743 
  17   0.0000       0.072257         1.9662 
  18   0.0000       0.105439         2.8691 
  19   0.0000       0.105439         2.8691 
  20   0.0000       0.112431         3.0594 
  21   0.0000       0.160830         4.3764 
  22   0.0000       0.160831         4.3764 
  23   0.0000       0.171906         4.6778 
  24   0.0000       0.171906         4.6778 
  25   0.0000       0.186751         5.0818 
  26   0.0000       0.224324         6.1042 
  27   0.0000       0.224330         6.1043 
  28   0.0000       0.239971         6.5299 
  29   0.0000       0.288713         7.8563 
  30   0.0000       0.340844         9.2748 
  31   0.0000       0.352938         9.6039 
  32   0.0000       0.352948         9.6042 
  33   0.0000       0.388435        10.5699 
  34   0.0000       0.388661        10.5760 
  35   0.0000       0.388663        10.5761 
  36   0.0000       0.406678        11.0663 
  37   0.0000       0.406679        11.0663 
  38   0.0000       0.413596        11.2545 
  39   0.0000       0.487640        13.2693 
  40   0.0000       0.487644        13.2695 
  41   0.0000       0.506909        13.7937 
  42   0.0000       0.568530        15.4705 
  43   0.0000       0.630088        17.1456 
  44   0.0000       0.630088        17.1456 
  45   0.0000       0.688259        18.7285 
  46   0.0000       0.688263        18.7286 
  47   0.0000       0.711350        19.3568 
  48   0.0000       0.718733        19.5577 
  49   0.0000       0.718739        19.5579 
  50   0.0000       0.731250        19.8983 
  51   0.0000       0.759513        20.6674 
  52   0.0000       0.792539        21.5661 
  53   0.0000       0.792543        21.5662 
  54   0.0000       0.874274        23.7902 
  55   0.0000       0.893875        24.3236 
  56   0.0000       0.893880        24.3237 
  57   0.0000       0.937457        25.5095 
  58   0.0000       0.971737        26.4423 
  59   0.0000       0.971743        26.4425 
  60   0.0000       1.072848        29.1937 
  61   0.0000       1.072853        29.1938 
  62   0.0000       1.103367        30.0241 
  63   0.0000       1.161866        31.6160 
  64   0.0000       1.167708        31.7750 
  65   0.0000       1.167710        31.7750 
  66   0.0000       1.229467        33.4555 
  67   0.0000       1.247306        33.9409 
  68   0.0000       1.247317        33.9412 
  69   0.0000       1.322930        35.9988 
  70   0.0000       1.325915        36.0800 
  71   0.0000       1.325923        36.0802 
  72   0.0000       1.446652        39.3654 
  73   0.0000       1.446684        39.3663 
  74   0.0000       1.675358        45.5888 
  75   0.0000       2.129092        57.9355 
  76   0.0000       2.157368        58.7050 
  77   0.0000       2.157394        58.7057 
  78   0.0000       2.192682        59.6659 
  79   0.0000       2.219835        60.4048 
  80   0.0000       2.219842        60.4050 
  81   0.0000       2.226529        60.5869 
  82   0.0000       2.331017        63.4302 
  83   0.0000       2.331045        63.4310 
  84   0.0000       2.362057        64.2748 
  85   0.0000       2.474281        67.3286 
  86   0.0000       2.474292        67.3289 
  87   0.0000       2.599691        70.7412 
  88   0.0000       2.599698        70.7414 
  89   0.0000       2.778384        75.6037 
  90   0.0000       2.873862        78.2018 
  91   0.0000       2.948425        80.2307 
  92   0.0000       2.948452        80.2314 
  93   0.0000       3.140095        85.4463 
  94   0.0000       3.171623        86.3042 
  95   0.0000       3.193645        86.9035 
  96   0.0000       3.193670        86.9042 
  97   0.0000       3.300812        89.8197 
  98   0.0000       3.300856        89.8209 
  99   0.0000       3.389135        92.2230 
 100   0.0000       3.389158        92.2237 
 101   0.0000       3.431356        93.3719 
 102   0.0000       3.604988        98.0967 
 103   0.0000       3.605023        98.0977 
 104   0.0000       3.727947       101.4426 
 105   0.0000       3.894824       105.9835 
 106   0.0000       3.900518       106.1385 
 107   0.0000       3.970815       108.0514 
 108   0.0000       3.970880       108.0531 
 109   0.0000       4.078633       110.9852 
 110   0.0000       4.078651       110.9857 
 111   0.0000       4.187690       113.9528 
 112   0.0000       4.207905       114.5029 
 113   0.0000       4.207981       114.5050 
 114   0.0000       5.353321       145.6713 
 115   0.0000       5.383033       146.4798 
 116   0.0000       5.383112       146.4819 
 117   0.0000       6.910052       188.0321 
 118   0.0000       6.911749       188.0782 
 119   0.0000       6.911772       188.0789 
 120   0.0000       6.916534       188.2085 
 121   0.0000       6.916615       188.2106 
 122   0.0000       6.926568       188.4815 
 123   0.0000       6.928806       188.5424 
 124   0.0000       6.928827       188.5430 
 125   0.0000       6.934530       188.6982 
 126   0.0000       7.068769       192.3510 
 127   0.0000       7.068815       192.3522 
 128   0.0000       7.131462       194.0569 
 129   0.0000       7.244842       197.1422 
 130   0.0000       7.248547       197.2430 
 131   0.0000       7.248569       197.2436 
 132   0.0000       7.487389       203.7422 
 133   0.0000       7.502905       204.1644 
 134   0.0000       7.502964       204.1660 
 135   0.0000       7.598976       206.7786 
 136   0.0000       7.759350       211.1426 
 137   0.0000       7.759419       211.1445 
 138   0.0000       8.507025       231.4879 
 139   0.0000       8.507064       231.4890 
 140   0.0000       8.545927       232.5465 
 141   0.0000       8.593382       233.8378 
 142   0.0000       8.593400       233.8383 
 143   0.0000       8.609518       234.2769 
 144   0.0000       8.812063       239.7884 
 145   0.0000       8.820502       240.0181 
 146   0.0000       8.820525       240.0187 
 147   0.0000       8.955234       243.6843 
 148   0.0000       9.128718       248.4050 
 149   0.0000       9.128784       248.4069 
 150   0.0000       9.229339       251.1431 
 151   0.0000       9.408836       256.0274 
 152   0.0000       9.408844       256.0276 
 153   0.0000      22.743594       618.8846 
 154   0.0000      57.303884      1559.3180 
 155   0.0000      57.303911      1559.3187 
 156   0.0000      57.312037      1559.5398 

                 SPIN DOWN ORBITALS
  NO   OCC          E(Eh)            E(eV) 
   0   1.0000     -24.841930      -675.9833 
   1   1.0000     -24.841925      -675.9831 
   2   1.0000     -24.841910      -675.9827 
   3   1.0000     -10.535028      -286.6727 
   4   1.0000      -1.470262       -40.0079 
   5   1.0000      -1.364829       -37.1389 
   6   1.0000      -1.364821       -37.1387 
   7   1.0000      -0.820839       -22.3362 
   8   1.0000      -0.717999       -19.5377 
   9   1.0000      -0.717994       -19.5376 
  10   1.0000      -0.665279       -18.1032 
  11   1.0000      -0.595395       -16.2015 
  12   1.0000      -0.595391       -16.2014 
  13   1.0000      -0.548385       -14.9223 
  14   1.0000      -0.548372       -14.9220 
  15   1.0000      -0.530893       -14.4463 
  16   0.0000      -0.062302        -1.6953 
  17   0.0000       0.082763         2.2521 
  18   0.0000       0.108377         2.9491 
  19   0.0000       0.108377         2.9491 
  20   0.0000       0.127952         3.4817 
  21   0.0000       0.164254         4.4696 
  22   0.0000       0.164254         4.4696 
  23   0.0000       0.178522         4.8578 
  24   0.0000       0.178522         4.8578 
  25   0.0000       0.198502         5.4015 
  26   0.0000       0.241134         6.5616 
  27   0.0000       0.246260         6.7011 
  28   0.0000       0.246261         6.7011 
  29   0.0000       0.294504         8.0139 
  30   0.0000       0.352117         9.5816 
  31   0.0000       0.374033        10.1780 
  32   0.0000       0.374035        10.1780 
  33   0.0000       0.390131        10.6160 
  34   0.0000       0.390133        10.6161 
  35   0.0000       0.399044        10.8585 
  36   0.0000       0.409642        11.1469 
  37   0.0000       0.409642        11.1469 
  38   0.0000       0.423009        11.5107 
  39   0.0000       0.488604        13.2956 
  40   0.0000       0.488605        13.2956 
  41   0.0000       0.511499        13.9186 
  42   0.0000       0.573105        15.5950 
  43   0.0000       0.632375        17.2078 
  44   0.0000       0.632378        17.2079 
  45   0.0000       0.689860        18.7720 
  46   0.0000       0.689863        18.7721 
  47   0.0000       0.711713        19.3667 
  48   0.0000       0.721685        19.6381 
  49   0.0000       0.721689        19.6382 
  50   0.0000       0.742743        20.2111 
  51   0.0000       0.758742        20.6464 
  52   0.0000       0.794257        21.6128 
  53   0.0000       0.794260        21.6129 
  54   0.0000       0.875895        23.8343 
  55   0.0000       0.896809        24.4034 
  56   0.0000       0.896813        24.4035 
  57   0.0000       0.951208        25.8837 
  58   0.0000       0.979636        26.6573 
  59   0.0000       0.979641        26.6574 
  60   0.0000       1.076142        29.2833 
  61   0.0000       1.076145        29.2834 
  62   0.0000       1.106622        30.1127 
  63   0.0000       1.169277        31.8176 
  64   0.0000       1.169280        31.8177 
  65   0.0000       1.174118        31.9494 
  66   0.0000       1.234489        33.5922 
  67   0.0000       1.258363        34.2418 
  68   0.0000       1.258373        34.2421 
  69   0.0000       1.323255        36.0076 
  70   0.0000       1.332999        36.2727 
  71   0.0000       1.333018        36.2733 
  72   0.0000       1.449745        39.4496 
  73   0.0000       1.449780        39.4505 
  74   0.0000       1.729772        47.0695 
  75   0.0000       2.137853        58.1739 
  76   0.0000       2.165672        58.9309 
  77   0.0000       2.165680        58.9311 
  78   0.0000       2.195791        59.7505 
  79   0.0000       2.227438        60.6117 
  80   0.0000       2.227441        60.6118 
  81   0.0000       2.239620        60.9432 
  82   0.0000       2.336567        63.5812 
  83   0.0000       2.336594        63.5819 
  84   0.0000       2.363366        64.3105 
  85   0.0000       2.483191        67.5711 
  86   0.0000       2.483199        67.5713 
  87   0.0000       2.620991        71.3208 
  88   0.0000       2.621024        71.3217 
  89   0.0000       2.785158        75.7880 
  90   0.0000       2.881390        78.4066 
  91   0.0000       2.953021        80.3558 
  92   0.0000       2.953024        80.3559 
  93   0.0000       3.158872        85.9573 
  94   0.0000       3.208096        87.2967 
  95   0.0000       3.208104        87.2969 
  96   0.0000       3.222304        87.6834 
  97   0.0000       3.328302        90.5677 
  98   0.0000       3.328303        90.5677 
  99   0.0000       3.429281        93.3155 
 100   0.0000       3.429287        93.3156 
 101   0.0000       3.438102        93.5555 
 102   0.0000       3.629074        98.7521 
 103   0.0000       3.629079        98.7523 
 104   0.0000       3.760930       102.3401 
 105   0.0000       3.905622       106.2774 
 106   0.0000       3.908561       106.3574 
 107   0.0000       3.996169       108.7413 
 108   0.0000       3.996226       108.7428 
 109   0.0000       4.087075       111.2150 
 110   0.0000       4.087082       111.2151 
 111   0.0000       4.199161       114.2650 
 112   0.0000       4.216237       114.7296 
 113   0.0000       4.216303       114.7314 
 114   0.0000       5.366240       146.0228 
 115   0.0000       5.393439       146.7629 
 116   0.0000       5.393460       146.7635 
 117   0.0000       6.914244       188.1461 
 118   0.0000       6.917084       188.2234 
 119   0.0000       6.917098       188.2238 
 120   0.0000       6.920403       188.3137 
 121   0.0000       6.920451       188.3150 
 122   0.0000       6.932077       188.6314 
 123   0.0000       6.933613       188.6732 
 124   0.0000       6.933637       188.6739 
 125   0.0000       6.938011       188.7929 
 126   0.0000       7.074678       192.5118 
 127   0.0000       7.074719       192.5129 
 128   0.0000       7.134518       194.1401 
 129   0.0000       7.252235       197.3433 
 130   0.0000       7.255207       197.4242 
 131   0.0000       7.255226       197.4247 
 132   0.0000       7.497289       204.0116 
 133   0.0000       7.510250       204.3643 
 134   0.0000       7.510303       204.3657 
 135   0.0000       7.607363       207.0069 
 136   0.0000       7.766639       211.3410 
 137   0.0000       7.766750       211.3440 
 138   0.0000       8.514947       231.7035 
 139   0.0000       8.514983       231.7045 
 140   0.0000       8.552506       232.7255 
 141   0.0000       8.603288       234.1074 
 142   0.0000       8.603307       234.1079 
 143   0.0000       8.618669       234.5259 
 144   0.0000       8.818503       239.9637 
 145   0.0000       8.829523       240.2635 
 146   0.0000       8.829544       240.2641 
 147   0.0000       8.964919       243.9478 
 148   0.0000       9.133758       248.5422 
 149   0.0000       9.133815       248.5437 
 150   0.0000       9.235646       251.3147 
 151   0.0000       9.415352       256.2048 
 152   0.0000       9.415364       256.2051 
 153   0.0000      22.766551       619.5094 
 154   0.0000      57.306774      1559.3966 
 155   0.0000      57.306802      1559.3974 
 156   0.0000      57.314956      1559.6192 

                    ********************************
                    * MULLIKEN POPULATION ANALYSIS *
                    ********************************

--------------------------------------------
MULLIKEN ATOMIC CHARGES AND SPIN POPULATIONS
--------------------------------------------
   0 C :    0.555964    0.790923
   1 F :   -0.185304    0.069678
   2 F :   -0.185330    0.069699
   3 F :   -0.185330    0.069699
Sum of atomic charges         :   -0.0000000
Sum of atomic spin populations:    1.0000000

-----------------------------------------------------
MULLIKEN REDUCED ORBITAL CHARGES AND SPIN POPULATIONS
-----------------------------------------------------
CHARGE
  0 C s       :     3.191150  s :     3.191150
      pz      :     0.853762  p :     1.911187
      px      :     0.528695
      py      :     0.528731
      dz2     :     0.056530  d :     0.299696
      dxz     :     0.048492
      dyz     :     0.048509
      dx2y2   :     0.073088
      dxy     :     0.073078
      f0      :     0.001556  f :     0.042001
      f+1     :     0.006066
      f-1     :     0.006068
      f+2     :     0.006711
      f-2     :     0.006712
      f+3     :     0.004432
      f-3     :     0.010456
  1 F s       :     3.953381  s :     3.953381
      pz      :     1.771094  p :     5.221477
      px      :     1.526420
      py      :     1.923963
      dz2     :     0.000629  d :     0.009623
      dxz     :     0.005603
      dyz     :     0.001129
      dx2y2   :     0.004790
      dxy     :    -0.002528
      f0      :     0.000083  f :     0.000823
      f+1     :     0.000164
      f-1     :     0.000004
      f+2     :     0.000205
      f-2     :     0.000058
      f+3     :     0.000177
      f-3     :     0.000133
  2 F s       :     3.953426  s :     3.953426
      pz      :     1.771075  p :     5.221469
      px      :     1.824569
      py      :     1.625825
      dz2     :     0.000626  d :     0.009612
      dxz     :     0.002247
      dyz     :     0.004485
      dx2y2   :    -0.000700
      dxy     :     0.002955
      f0      :     0.000083  f :     0.000823
      f+1     :     0.000044
      f-1     :     0.000124
      f+2     :     0.000094
      f-2     :     0.000168
      f+3     :     0.000177
      f-3     :     0.000133
  3 F s       :     3.953426  s :     3.953426
      pz      :     1.771075  p :     5.221469
      px      :     1.824569
      py      :     1.625825
      dz2     :     0.000626  d :     0.009612
      dxz     :     0.002247
      dyz     :     0.004484
      dx2y2   :    -0.000700
      dxy     :     0.002955
      f0      :     0.000083  f :     0.000823
      f+1     :     0.000044
      f-1     :     0.000124
      f+2     :     0.000094
      f-2     :     0.000168
      f+3     :     0.000177
      f-3     :     0.000133

SPIN
  0 C s       :     0.270471  s :     0.270471
      pz      :     0.486499  p :     0.509899
      px      :     0.011701
      py      :     0.011700
      dz2     :     0.016156  d :     0.011319
      dxz     :    -0.001519
      dyz     :    -0.001516
      dx2y2   :    -0.000903
      dxy     :    -0.000899
      f0      :    -0.000110  f :    -0.000766
      f+1     :    -0.000395
      f-1     :    -0.000395
      f+2     :    -0.000174
      f-2     :    -0.000173
      f+3     :     0.000433
      f-3     :     0.000049
  1 F s       :     0.003302  s :     0.003302
      pz      :     0.068396  p :     0.064848
      px      :    -0.002383
      py      :    -0.001165
      dz2     :     0.000080  d :     0.001496
      dxz     :     0.000669
      dyz     :    -0.000010
      dx2y2   :     0.000825
      dxy     :    -0.000069
      f0      :    -0.000001  f :     0.000033
      f+1     :     0.000022
      f-1     :     0.000000
      f+2     :     0.000001
      f-2     :     0.000002
      f+3     :     0.000009
      f-3     :     0.000000
  2 F s       :     0.003309  s :     0.003309
      pz      :     0.068395  p :     0.064857
      px      :    -0.001463
      py      :    -0.002075
      dz2     :     0.000080  d :     0.001500
      dxz     :     0.000160
      dyz     :     0.000501
      dx2y2   :     0.000155
      dxy     :     0.000604
      f0      :    -0.000001  f :     0.000033
      f+1     :     0.000006
      f-1     :     0.000017
      f+2     :     0.000002
      f-2     :     0.000001
      f+3     :     0.000009
      f-3     :     0.000000
  3 F s       :     0.003309  s :     0.003309
      pz      :     0.068395  p :     0.064857
      px      :    -0.001463
      py      :    -0.002075
      dz2     :     0.000080  d :     0.001500
      dxz     :     0.000160
      dyz     :     0.000501
      dx2y2   :     0.000155
      dxy     :     0.000604
      f0      :    -0.000001  f :     0.000033
      f+1     :     0.000006
      f-1     :     0.000017
      f+2     :     0.000002
      f-2     :     0.000001
      f+3     :     0.000009
      f-3     :     0.000000


                     *******************************
                     * LOEWDIN POPULATION ANALYSIS *
                     *******************************

-------------------------------------------
LOEWDIN ATOMIC CHARGES AND SPIN POPULATIONS
-------------------------------------------
   0 C :   -0.372352    0.620724
   1 F :    0.124105    0.126436
   2 F :    0.124124    0.126420
   3 F :    0.124124    0.126420

----------------------------------------------------
LOEWDIN REDUCED ORBITAL CHARGES AND SPIN POPULATIONS
----------------------------------------------------
CHARGE
  0 C s       :     2.699222  s :     2.699222
      pz      :     0.807017  p :     2.179914
      px      :     0.686436
      py      :     0.686461
      dz2     :     0.173960  d :     1.220498
      dxz     :     0.206902
      dyz     :     0.206909
      dx2y2   :     0.316363
      dxy     :     0.316363
      f0      :     0.015371  f :     0.272718
      f+1     :     0.029519
      f-1     :     0.029520
      f+2     :     0.049966
      f-2     :     0.049967
      f+3     :     0.040789
      f-3     :     0.057585
  1 F s       :     3.557633  s :     3.557633
      pz      :     1.702551  p :     5.097087
      px      :     1.608252
      py      :     1.786284
      dz2     :     0.035511  d :     0.219212
      dxz     :     0.064316
      dyz     :     0.008536
      dx2y2   :     0.043470
      dxy     :     0.067380
      f0      :     0.000177  f :     0.001964
      f+1     :     0.000461
      f-1     :     0.000008
      f+2     :     0.000477
      f-2     :     0.000124
      f+3     :     0.000356
      f-3     :     0.000362
  2 F s       :     3.557631  s :     3.557631
      pz      :     1.702545  p :     5.097074
      px      :     1.741768
      py      :     1.652760
      dz2     :     0.035511  d :     0.219208
      dxz     :     0.022480
      dyz     :     0.050370
      dx2y2   :     0.061400
      dxy     :     0.049447
      f0      :     0.000177  f :     0.001964
      f+1     :     0.000122
      f-1     :     0.000348
      f+2     :     0.000212
      f-2     :     0.000388
      f+3     :     0.000356
      f-3     :     0.000362
  3 F s       :     3.557631  s :     3.557631
      pz      :     1.702545  p :     5.097073
      px      :     1.741768
      py      :     1.652760
      dz2     :     0.035511  d :     0.219208
      dxz     :     0.022480
      dyz     :     0.050370
      dx2y2   :     0.061400
      dxy     :     0.049447
      f0      :     0.000177  f :     0.001964
      f+1     :     0.000122
      f-1     :     0.000348
      f+2     :     0.000212
      f-2     :     0.000388
      f+3     :     0.000356
      f-3     :     0.000362

SPIN
  0 C s       :     0.148463  s :     0.148463
      pz      :     0.403413  p :     0.414498
      px      :     0.005537
      py      :     0.005548
      dz2     :     0.058459  d :     0.049730
      dxz     :    -0.003732
      dyz     :    -0.003732
      dx2y2   :    -0.000633
      dxy     :    -0.000631
      f0      :     0.000526  f :     0.008034
      f+1     :    -0.000218
      f-1     :    -0.000218
      f+2     :    -0.000194
      f-2     :    -0.000194
      f+3     :     0.008330
      f-3     :     0.000003
  1 F s       :     0.015094  s :     0.015094
      pz      :     0.074636  p :     0.080037
      px      :     0.006083
      py      :    -0.000682
      dz2     :     0.008521  d :     0.030962
      dxz     :     0.021442
      dyz     :    -0.000159
      dx2y2   :     0.001151
      dxy     :     0.000007
      f0      :     0.000001  f :     0.000343
      f+1     :     0.000248
      f-1     :     0.000001
      f+2     :     0.000069
      f-2     :     0.000001
      f+3     :     0.000021
      f-3     :     0.000003
  2 F s       :     0.015093  s :     0.015093
      pz      :     0.074630  p :     0.080021
      px      :     0.001009
      py      :     0.004382
      dz2     :     0.008521  d :     0.030962
      dxz     :     0.005241
      dyz     :     0.016042
      dx2y2   :     0.000293
      dxy     :     0.000865
      f0      :     0.000001  f :     0.000343
      f+1     :     0.000062
      f-1     :     0.000186
      f+2     :     0.000018
      f-2     :     0.000052
      f+3     :     0.000021
      f-3     :     0.000003
  3 F s       :     0.015093  s :     0.015093
      pz      :     0.074630  p :     0.080021
      px      :     0.001009
      py      :     0.004382
      dz2     :     0.008521  d :     0.030962
      dxz     :     0.005241
      dyz     :     0.016042
      dx2y2   :     0.000293
      dxy     :     0.000865
      f0      :     0.000001  f :     0.000343
      f+1     :     0.000062
      f-1     :     0.000186
      f+2     :     0.000018
      f-2     :     0.000052
      f+3     :     0.000021
      f-3     :     0.000003


                      *****************************
                      * MAYER POPULATION ANALYSIS *
                      *****************************

  NA   - Mulliken gross atomic population
  ZA   - Total nuclear charge
  QA   - Mulliken gross atomic charge
  VA   - Mayer's total valence
  BVA  - Mayer's bonded valence
  FA   - Mayer's free valence

  ATOM       NA         ZA         QA         VA         BVA        FA
  0 C      5.4440     6.0000     0.5560     3.7994     3.1673     0.6321
  1 F      9.1853     9.0000    -0.1853     1.0540     1.0502     0.0039
  2 F      9.1853     9.0000    -0.1853     1.0539     1.0500     0.0039
  3 F      9.1853     9.0000    -0.1853     1.0539     1.0500     0.0039

  Mayer bond orders larger than 0.100000
B(  0-C ,  1-F ) :   1.0558 B(  0-C ,  2-F ) :   1.0557 B(  0-C ,  3-F ) :   1.0557 


-------
TIMINGS
-------

Total SCF time: 0 days 0 hours 0 min 12 sec 

Total time                  ....      12.746 sec
Sum of individual times     ....      11.614 sec  ( 91.1%)

Fock matrix formation       ....       9.470 sec  ( 74.3%)
  Split-RI-J                ....       2.281 sec  ( 24.1% of F)
  Chain of spheres X        ....       2.669 sec  ( 28.2% of F)
  XC integration            ....       1.767 sec  ( 18.7% of F)
    Basis function eval.    ....       0.102 sec  (  5.8% of XC)
    Density eval.           ....       0.134 sec  (  7.6% of XC)
    XC-Functional eval.     ....       0.056 sec  (  3.2% of XC)
    XC-Potential eval.      ....       0.287 sec  ( 16.2% of XC)
Diagonalization             ....       0.308 sec  (  2.4%)
Density matrix formation    ....       0.015 sec  (  0.1%)
Population analysis         ....       0.132 sec  (  1.0%)
Initial guess               ....       0.715 sec  (  5.6%)
Orbital Transformation      ....       0.000 sec  (  0.0%)
Orbital Orthonormalization  ....       0.000 sec  (  0.0%)
DIIS solution               ....       0.414 sec  (  3.2%)
Grid generation             ....       0.560 sec  (  4.4%)

Maximum memory used throughout the entire SCF-calculation: 63.2 MB


-------------------------------------------------------------------------------
                          DFT DISPERSION CORRECTION                            
                                                                               
                              DFTD3 V3.1  Rev 1                                
                              USING zero damping                               
-------------------------------------------------------------------------------
The omegaB97X-D3 functional is recognized. Fit by Chai et al.
Active option DFTDOPT                   ...         3   

molecular C6(AA) [au] = 165.639264 


            DFT-D V3
 parameters
 s6 scaling factor         :     1.0000 
 rs6 scaling factor        :     1.2810 
 s8 scaling factor         :     1.0000 
 rs8 scaling factor        :     1.0940 
 Damping factor alpha6     :    14.0000 
 Damping factor alpha8     :    16.0000 
 ad hoc parameters k1-k3   :    16.0000     1.3333    -4.0000 

 Edisp/kcal,au: -0.037107290984  -0.000059134226 
 E6   /kcal   :  -0.004718521 
 E8   /kcal   :  -0.032388770 
 % E8         :  87.284113080 

-------------------------   ----------------
Dispersion correction           -0.000059134
-------------------------   ----------------


-------------------------   --------------------
FINAL SINGLE POINT ENERGY      -337.619013866729
-------------------------   --------------------



           ************************************************************
           *        Program running with 18 parallel MPI-processes    *
           *              working on a common directory               *
           ************************************************************
------------------------------------------------------------------------------
                         ORCA SCF GRADIENT CALCULATION
------------------------------------------------------------------------------

 ... reading COSX grid (gridx3)
Gradient of the Kohn-Sham DFT energy:
Kohn-Sham wavefunction type      ... UKS
Hartree-Fock exchange scaling    ...    0.196
Number of operators              ...    2
Number of atoms                  ...    4
Basis set dimensions             ...  157
Integral neglect threshold       ... 2.5e-11
Integral primitive cutoff        ... 2.5e-12
SHARK Integral package           ... ON

Nuc. rep. gradient       (SHARK) ... done (  0.0 sec)
HCore & Overlap gradient (SHARK) ... done (  0.0 sec)
RI-J gradient            (SHARK) ... done (  0.3 sec)
COSX-gradient                    ... done (  0.5 sec)
Exchange-correlation gradient    ... done
Dispersion correction            ... done

------------------
CARTESIAN GRADIENT
------------------

WARNING: THERE ARE 3 CONSTRAINED CARTESIAN COORDINATES
   1   C   :    0.000059532   -0.000000050    0.072012932
   2   F   :   -0.029892517   -0.000000051   -0.024085798
   3   F   :    0.015134637   -0.025386846   -0.023756531
   4   F   :    0.015134596    0.025386514   -0.023756487

Difference to translation invariance:
           :    0.0004362476   -0.0000004330    0.0004141168

Difference to rotation invariance:
           :   -0.0000004745    0.0003652113    0.0000001783

Norm of the cartesian gradient     ...    0.0976492594
RMS gradient                       ...    0.0281889131
MAX gradient                       ...    0.0720129323

-------
TIMINGS
-------

Total SCF gradient time            ...        1.312 sec

One electron gradient       ....       0.012 sec  (  0.9%)
RI-J Coulomb gradient       ....       0.277 sec  ( 21.1%)
COSX gradient               ....       0.463 sec  ( 35.3%)
XC gradient                 ....       0.157 sec  ( 12.0%)

Maximum memory used throughout the entire SCFGRAD-calculation: 37.2 MB
------------------------------------------------------------------------------
                         ORCA GEOMETRY RELAXATION STEP
------------------------------------------------------------------------------

Reading the OPT-File                    .... done
Getting information on internals        .... done
Copying old internal coords+grads       .... done
Making the new internal coordinates     .... (new redundants).... done
Validating the new internal coordinates .... (new redundants).... done
Calculating the B-matrix                .... done
Calculating the G,G- and P matrices     .... done
Transforming gradient to internals      .... done
Projecting the internal gradient        .... done
Number of atoms                         ....   4
Number of internal coordinates          ....   7
Current Energy                          ....  -337.619013867 Eh
Current gradient norm                   ....     0.097649259 Eh/bohr
Maximum allowed component of the step   ....  0.300
Current trust radius                    ....  0.300
Evaluating the initial hessian          ....  (Almloef) done
Projecting the Hessian                  .... done
Forming the augmented Hessian           .... done
Diagonalizing the augmented Hessian     .... done
Last element of RFO vector              ....  0.999047051
Lowest eigenvalues of augmented Hessian:
 -0.001309710  0.684895726  0.684895726  0.686205436 1000.000000000
Length of the computed step             ....  0.043687830
The final length of the internal step   ....  0.043687830
Converting the step to cartesian space:
 Initial RMS(Int)=    0.0165124478
Transforming coordinates:
 Iter   0:  RMS(Cart)=    0.0117981132 RMS(Int)=    0.0165124489
 Iter   1:  RMS(Cart)=    0.0000000032 RMS(Int)=    0.0000000057
Imposing constraints:
 Iter   0:  RMS(Cart)=    0.0000000006 RMS(Int)=    0.0000000010
CONVERGED
done
Storing new coordinates                 .... done

                                .--------------------.
          ----------------------|Geometry convergence|-------------------------
          Item                value                   Tolerance       Converged
          ---------------------------------------------------------------------
          RMS gradient        0.0113309314            0.0001000000      NO
          MAX gradient        0.0175809529            0.0003000000      NO
          RMS step            0.0165124478            0.0020000000      NO
          MAX step            0.0256205387            0.0040000000      NO
          ........................................................
          Max(Bonds)      0.0136      Max(Angles)    0.00
          Max(Dihed)        0.00      Max(Improp)    0.00
          ---------------------------------------------------------------------

The optimization has not yet converged - more geometry cycles are needed


    ---------------------------------------------------------------------------
                         Redundant Internal Coordinates
                            (Angstroem and degrees)

        Definition                    Value    dE/dq     Step     New-Value
    ----------------------------------------------------------------------------
     1. B(F   1,C   0)                1.3150 -0.017581  0.0136    1.3286   
     2. B(F   2,C   0)                1.3150 -0.017170  0.0132    1.3282   
     3. B(F   3,C   0)                1.3150 -0.017170  0.0132    1.3282   
     4. A(F   2,C   0,F   3)          104.50 -0.055883   -0.00    104.50 C 
     5. A(F   1,C   0,F   2)          104.50 -0.023788   -0.00    104.50 C 
     6. A(F   1,C   0,F   3)          104.50 -0.023788   -0.00    104.50 C 
     7. I(F   1,F   3,F   2,C   0)     65.86  0.057397    0.00     65.86   
    ----------------------------------------------------------------------------

         *************************************************************
         *                GEOMETRY OPTIMIZATION CYCLE   2            *
         *************************************************************
---------------------------------
CARTESIAN COORDINATES (ANGSTROEM)
---------------------------------
  C     -0.000092   -0.000000    0.004083
  F      1.212920   -0.000000   -0.537827
  F     -0.606414    1.050226   -0.537786
  F     -0.606414   -1.050226   -0.537786

----------------------------
CARTESIAN COORDINATES (A.U.)
----------------------------
  NO LB      ZA    FRAG     MASS         X           Y           Z
   0 C     6.0000    0    12.011   -0.000174   -0.000000    0.007717
   1 F     9.0000    0    18.998    2.292087   -0.000000   -1.016346
   2 F     9.0000    0    18.998   -1.145957    1.984640   -1.016268
   3 F     9.0000    0    18.998   -1.145957   -1.984640   -1.016268

--------------------------------
INTERNAL COORDINATES (ANGSTROEM)
--------------------------------
 C      0   0   0     0.000000000000     0.00000000     0.00000000
 F      1   0   0     1.328557805179     0.00000000     0.00000000
 F      1   2   0     1.328241187195   104.50000003     0.00000000
 F      1   2   3     1.328241100276   104.50000003   109.51230162

---------------------------
INTERNAL COORDINATES (A.U.)
---------------------------
 C      0   0   0     0.000000000000     0.00000000     0.00000000
 F      1   0   0     2.510610404871     0.00000000     0.00000000
 F      1   2   0     2.510012083593   104.50000003     0.00000000
 F      1   2   3     2.510011919340   104.50000003   109.51230162



           ************************************************************
           *        Program running with 18 parallel MPI-processes    *
           *              working on a common directory               *
           ************************************************************
------------------------------------------------------------------------------
                   ___                                                        
                  /   \      - P O W E R E D   B Y -                         
                 /     \                                                     
                 |  |  |   _    _      __       _____    __    __             
                 |  |  |  | |  | |    /  \     |  _  \  |  |  /  |          
                  \  \/   | |  | |   /    \    | | | |  |  | /  /          
                 / \  \   | |__| |  /  /\  \   | |_| |  |  |/  /          
                |  |  |   |  __  | /  /__\  \  |    /   |      \           
                |  |  |   | |  | | |   __   |  |    \   |  |\   \          
                \     /   | |  | | |  |  |  |  | |\  \  |  | \   \       
                 \___/    |_|  |_| |__|  |__|  |_| \__\ |__|  \__/        
                                                                              
                      - O R C A' S   B I G   F R I E N D -                    
                                      &                                       
                       - I N T E G R A L  F E E D E R -                       
                                                                              
 v1 FN, 2020, v2 2021                                                         
------------------------------------------------------------------------------


Reading SHARK input file /beegfs/scratch/ispackman/PFAS_EPR_calcs/benchmark/JChemEd_CF3_radical/CF3_radical_104.5_degrees_IN-PROGRESS/CF3_radical_104.5_degrees.SHARKINP.tmp ... ok
----------------------
SHARK INTEGRAL PACKAGE
----------------------

Number of atoms                             ...      4
Number of basis functions                   ...    157
Number of shells                            ...     55
Maximum angular momentum                    ...      3
Integral batch strategy                     ... SHARK/LIBINT Hybrid
RI-J (if used) integral strategy            ... SPLIT-RIJ (Revised 2003 algorithm where possible)
Printlevel                                  ...      1
Contraction scheme used                     ... SEGMENTED contraction
Coulomb Range Separation                    ... NOT USED
Exchange Range Separation                   ... Long Range
   Mu parameter                             ...  0.250000
   Scaling (regular/separated)              ...  0.195728  0.804272
Finite Nucleus Model                        ... NOT USED
Auxiliary Coulomb fitting basis             ... AVAILABLE
   # of basis functions in Aux-J            ...    196
   # of shells in Aux-J                     ...     60
   Maximum angular momentum in Aux-J        ...      4
Auxiliary J/K fitting basis                 ... NOT available
Auxiliary Correlation fitting basis         ... NOT available
Auxiliary 'external' fitting basis          ... NOT available
Integral threshold                          ...     2.500000e-11
Primitive cut-off                           ...     2.500000e-12
Primitive pair pre-selection threshold      ...     2.500000e-12

Calculating pre-screening integrals         ... done (  0.1 sec) Dimension = 55
Organizing shell pair data                  ... done (  0.0 sec)
Shell pair information
Total number of shell pairs                 ...      1540
Shell pairs after pre-screening             ...      1504
Total number of primitive shell pairs       ...      4274
Primitive shell pairs kept                  ...      3545
          la=0 lb=0:    282 shell pairs
          la=1 lb=0:    354 shell pairs
          la=1 lb=1:    120 shell pairs
          la=2 lb=0:    276 shell pairs
          la=2 lb=1:    180 shell pairs
          la=2 lb=2:     78 shell pairs
          la=3 lb=0:     96 shell pairs
          la=3 lb=1:     60 shell pairs
          la=3 lb=2:     48 shell pairs
          la=3 lb=3:     10 shell pairs

Calculating one electron integrals          ... done (  0.0 sec)
Calculating RI/J V-Matrix + Cholesky decomp.... done (  0.0 sec)
Calculating Nuclear repulsion               ... done (  0.0 sec) ENN=    125.751692595129 Eh

SHARK setup successfully completed in   0.3 seconds

Maximum memory used throughout the entire GTOINT-calculation: 15.2 MB


           ************************************************************
           *        Program running with 18 parallel MPI-processes    *
           *              working on a common directory               *
           ************************************************************

Diagonalization of the overlap matrix:
Smallest eigenvalue                        ... 3.708e-04
Time for diagonalization                   ...    0.008 sec
Threshold for overlap eigenvalues          ... 1.000e-08
Number of eigenvalues below threshold      ... 0
Time for construction of square roots      ...    0.016 sec
Total time needed                          ...    0.025 sec

-------------------
DFT GRID GENERATION
-------------------

General Integration Accuracy     IntAcc      ... 4.388
Radial Grid Type                 RadialGrid  ... OptM3 with GC (2021)
Angular Grid (max. ang.)         AngularGrid ... 4 (Lebedev-302)
Angular grid pruning method      GridPruning ... 4 (adaptive)
Weight generation scheme         WeightScheme... Becke
Basis function cutoff            BFCut       ... 1.0000e-11
Integration weight cutoff        WCut        ... 1.0000e-14
Angular grids for H and He will be reduced by one unit
Partially contracted basis set               ... off
Rotationally invariant grid construction     ... off

Total number of grid points                  ...    25777
Total number of batches                      ...      404
Average number of points per batch           ...       63
Average number of grid points per atom       ...     6444
Time for grid setup =    0.154 sec

--------------------
COSX GRID GENERATION
--------------------

GRIDX 1
-------
General Integration Accuracy     IntAcc      ... 3.816
Radial Grid Type                 RadialGrid  ... OptM3 with GC (2021)
Angular Grid (max. ang.)         AngularGrid ... 1 (Lebedev-50)
Angular grid pruning method      GridPruning ... 4 (adaptive)
Weight generation scheme         WeightScheme... Becke
Basis function cutoff            BFCut       ... 1.0000e-11
Integration weight cutoff        WCut        ... 1.0000e-14
Angular grids for H and He will be reduced by one unit
Partially contracted basis set               ... on
Rotationally invariant grid construction     ... off

Total number of grid points                  ...     3270
Total number of batches                      ...       53
Average number of points per batch           ...       61
Average number of grid points per atom       ...      818
UseSFitting                                  ... on

GRIDX 2
-------
General Integration Accuracy     IntAcc      ... 4.020
Radial Grid Type                 RadialGrid  ... OptM3 with GC (2021)
Angular Grid (max. ang.)         AngularGrid ... 2 (Lebedev-110)
Angular grid pruning method      GridPruning ... 4 (adaptive)
Weight generation scheme         WeightScheme... Becke
Basis function cutoff            BFCut       ... 1.0000e-11
Integration weight cutoff        WCut        ... 1.0000e-14
Angular grids for H and He will be reduced by one unit
Partially contracted basis set               ... on
Rotationally invariant grid construction     ... off

Total number of grid points                  ...     9111
Total number of batches                      ...      144
Average number of points per batch           ...       63
Average number of grid points per atom       ...     2278
UseSFitting                                  ... on

GRIDX 3
-------
General Integration Accuracy     IntAcc      ... 4.338
Radial Grid Type                 RadialGrid  ... OptM3 with GC (2021)
Angular Grid (max. ang.)         AngularGrid ... 3 (Lebedev-194)
Angular grid pruning method      GridPruning ... 4 (adaptive)
Weight generation scheme         WeightScheme... Becke
Basis function cutoff            BFCut       ... 1.0000e-11
Integration weight cutoff        WCut        ... 1.0000e-14
Angular grids for H and He will be reduced by one unit
Partially contracted basis set               ... on
Rotationally invariant grid construction     ... off

Total number of grid points                  ...    19675
Total number of batches                      ...      309
Average number of points per batch           ...       63
Average number of grid points per atom       ...     4919
UseSFitting                                  ... on

Time for X-Grid setup             =    0.359 sec

--------------
SCF ITERATIONS
--------------
[...]
  VA   - Mayer's total valence
  BVA  - Mayer's bonded valence
  FA   - Mayer's free valence

  ATOM       NA         ZA         QA         VA         BVA        FA
  0 C      5.4576     6.0000     0.5424     3.7948     3.1667     0.6281
  1 F      9.1809     9.0000    -0.1809     1.0582     1.0540     0.0042
  2 F      9.1807     9.0000    -0.1807     1.0584     1.0542     0.0042
  3 F      9.1807     9.0000    -0.1807     1.0584     1.0542     0.0042

  Mayer bond orders larger than 0.100000
B(  0-C ,  1-F ) :   1.0554 B(  0-C ,  2-F ) :   1.0557 B(  0-C ,  3-F ) :   1.0557 


-------
TIMINGS
-------

Total SCF time: 0 days 0 hours 0 min 6 sec 

Total time                  ....       6.435 sec
Sum of individual times     ....       5.695 sec  ( 88.5%)

Fock matrix formation       ....       4.656 sec  ( 72.4%)
  Split-RI-J                ....       0.642 sec  ( 13.8% of F)
  Chain of spheres X        ....       1.775 sec  ( 38.1% of F)
  XC integration            ....       0.872 sec  ( 18.7% of F)
    Basis function eval.    ....       0.055 sec  (  6.3% of XC)
    Density eval.           ....       0.069 sec  (  8.0% of XC)
    XC-Functional eval.     ....       0.030 sec  (  3.5% of XC)
    XC-Potential eval.      ....       0.112 sec  ( 12.9% of XC)
Diagonalization             ....       0.163 sec  (  2.5%)
Density matrix formation    ....       0.010 sec  (  0.2%)
Population analysis         ....       0.161 sec  (  2.5%)
Initial guess               ....       0.019 sec  (  0.3%)
Orbital Transformation      ....       0.000 sec  (  0.0%)
Orbital Orthonormalization  ....       0.011 sec  (  0.2%)
DIIS solution               ....       0.130 sec  (  2.0%)
Grid generation             ....       0.555 sec  (  8.6%)

Maximum memory used throughout the entire SCF-calculation: 63.2 MB


-------------------------------------------------------------------------------
                          DFT DISPERSION CORRECTION                            
                                                                               
                              DFTD3 V3.1  Rev 1                                
                              USING zero damping                               
-------------------------------------------------------------------------------
The omegaB97X-D3 functional is recognized. Fit by Chai et al.
Active option DFTDOPT                   ...         3   

molecular C6(AA) [au] = 165.680790 


            DFT-D V3
 parameters
 s6 scaling factor         :     1.0000 
 rs6 scaling factor        :     1.2810 
 s8 scaling factor         :     1.0000 
 rs8 scaling factor        :     1.0940 
 Damping factor alpha6     :    14.0000 
 Damping factor alpha8     :    16.0000 
 ad hoc parameters k1-k3   :    16.0000     1.3333    -4.0000 

 Edisp/kcal,au: -0.040810291636  -0.000065035332 
 E6   /kcal   :  -0.005195769 
 E8   /kcal   :  -0.035614523 
 % E8         :  87.268484739 

-------------------------   ----------------
Dispersion correction           -0.000065035
-------------------------   ----------------


-------------------------   --------------------
FINAL SINGLE POINT ENERGY      -337.619772748375
-------------------------   --------------------

                                *** OPTIMIZATION RUN DONE ***

                            ***************************************
                            *     ORCA property calculations      *
                            ***************************************

                                    ---------------------
                                    Active property flags
                                    ---------------------
   (+) Dipole Moment


------------------------------------------------------------------------------
                       ORCA ELECTRIC PROPERTIES CALCULATION
------------------------------------------------------------------------------

Dipole Moment Calculation                       ... on
Quadrupole Moment Calculation                   ... off
Polarizability Calculation                      ... off
GBWName                                         ... /beegfs/scratch/ispackman/PFAS_EPR_calcs/benchmark/JChemEd_CF3_radical/CF3_radical_104.5_degrees_IN-PROGRESS/CF3_radical_104.5_degrees.gbw
Electron density                                ... /beegfs/scratch/ispackman/PFAS_EPR_calcs/benchmark/JChemEd_CF3_radical/CF3_radical_104.5_degrees_IN-PROGRESS/CF3_radical_104.5_degrees.scfp
The origin for moment calculation is the CENTER OF MASS  = ( 0.000032, -0.000000 -0.838205)

-------------
DIPOLE MOMENT
-------------
                                X             Y             Z
Electronic contribution:     -0.00107      -0.00000       0.03751
Nuclear contribution   :     -0.00011       0.00000       0.26268
                        -----------------------------------------
Total Dipole Moment    :     -0.00118      -0.00000       0.30019
                        -----------------------------------------
Magnitude (a.u.)       :      0.30019
Magnitude (Debye)      :      0.76302



--------------------
Rotational spectrum 
--------------------
 
Rotational constants in cm-1:     0.374697     0.374498     0.200315 
Rotational constants in MHz : 11233.146944 11227.153890  6005.305510 

 Dipole components along the rotational axes: 
x,y,z [a.u.] :     0.001203    -0.000000     0.300188 
x,y,z [Debye]:     0.003057    -0.000000     0.763017 

 


           ************************************************************
           *        Program running with 18 parallel MPI-processes    *
           *              working on a common directory               *
           ************************************************************

-------------------------------------------------------------------------------
                               ORCA SCF HESSIAN
-------------------------------------------------------------------------------

                   --------- SHARK INITIALIZATION DONE ---------

Hessian of the Kohn-Sham DFT energy:
Kohn-Sham wavefunction type                      ... UKS
Hartree-Fock exchange scaling                    ...    0.196
Number of operators                              ...    2
Number of atoms                                  ...    4
Basis set dimensions                             ...  157
Integral neglect threshold                       ... 2.5e-11
Integral primitive cutoff                        ... 2.5e-12

Setting up DFT Hessian calculations              ... 

HESS GRID
---------

General Integration Accuracy     IntAcc      ... 4.629
Radial Grid Type                 RadialGrid  ... OptM3 with GC (2021)
Angular Grid (max. ang.)         AngularGrid ... 5 (Lebedev-434)
Angular grid pruning method      GridPruning ... 4 (adaptive)
Weight generation scheme         WeightScheme... Becke
Basis function cutoff            BFCut       ... 1.0000e-11
Integration weight cutoff        WCut        ... 1.0000e-14
Angular grids for H and He will be reduced by one unit
Partially contracted basis set               ... off
Rotationally invariant grid construction     ... off

Total number of grid points                  ...    39965
Total number of batches                      ...      627
Average number of points per batch           ...       63
Average number of grid points per atom       ...     9991

Building densities                               ... done   (      0.0 sec)
Calculating rho(r) on the grid                   ... done   (      0.1 sec)
Building xc-kernel on the grid                   ... done   (      0.1 sec)
                                                     done   (      0.6 sec)

Nuclear repulsion Hessian  (SHARK)               ... done   (      0.0 sec)

----------------------------------------------
Forming right-hand sides of CP-SCF equations     ...
----------------------------------------------
One electron integral derivatives  (SHARK)       ... done   (      0.0 sec)
Transforming the overlap derivative matrices     ... done   (      0.0 sec)
Making the Q(x) pseudodensities                  ... done   (      0.0 sec)
Adding the E*S(x)*S(y) terms to the Hessian      ... done   (      0.0 sec)
Calculating energy weighted overlap derivatives  ... done   (      0.0 sec)
Two electron integral derivatives (SHARK-RI)     ... done   (      2.5 sec)
Exchange-correlation integral derivatives        ... done   (      2.3 sec)
tr(F(y)Q(x)) contribution to the Hessian         ... done   (      0.0 sec)
Response fock operator R(S(x)) (SHARK-RIJCOSX)   ... done   (      0.9 sec)
XC Response fock operator R(S(x))                ... done   (      0.5 sec)
tr(F(y)S(x)) contribution to the Hessian         ... done   (      0.0 sec)
Transforming and finalizing RHSs                 ... done   (      0.0 sec)

----------------------------------------------
Solving the CP-SCF equations (RIJCOSX)           ...
----------------------------------------------
     CP-SCF ITERATION   0:   1.5959e-01 (   0.5 sec   0/ 12 done)
     CP-SCF ITERATION   1:   4.6877e-02 (   0.5 sec   0/ 12 done)
     CP-SCF ITERATION   2:   1.5918e-02 (   0.5 sec   0/ 12 done)
     CP-SCF ITERATION   3:   4.4566e-03 (   0.5 sec   0/ 12 done)
     CP-SCF ITERATION   4:   1.5463e-03 (   0.5 sec   0/ 12 done)
     CP-SCF ITERATION   5:   6.4613e-04 (   0.4 sec   1/ 12 done)
     CP-SCF ITERATION   6:   1.8199e-04 (   0.5 sec   4/ 12 done)
     CP-SCF ITERATION   7:   3.8553e-05 (   0.4 sec  12/ 12 done)
                    *** THE CP-SCF HAS CONVERGED ***

                                                 ... done   (      3.9 sec)
Forming perturbed density Hessian contributions  ... done   (      0.0 sec)
2nd integral derivative contribs (SHARK-RI)      ... done   (      6.6 sec)
Exchange-correlation Hessian                     ... done   (      0.8 sec)
Dispersion correction in the Hessian             ... done   (      0.1 sec)
Dipole derivatives                               ... (center of mass:  0.000032, -0.000000 -0.838205)done   (      0.2 sec)

Total SCF Hessian time: 0 days 0 hours 0 min 19 sec 

Writing the Hessian file to the disk             ... done


Maximum memory used throughout the entire SCFHESS-calculation: 144.6 MB

-----------------------
VIBRATIONAL FREQUENCIES
-----------------------

Scaling factor for frequencies =  1.000000000  (already applied!)

   0:         0.00 cm**-1
   1:         0.00 cm**-1
   2:         0.00 cm**-1
   3:         0.00 cm**-1
   4:         0.00 cm**-1
   5:         0.00 cm**-1
   6:       553.74 cm**-1
   7:       553.84 cm**-1
   8:       752.65 cm**-1
   9:      1117.28 cm**-1
  10:      1155.67 cm**-1
  11:      1157.74 cm**-1


------------
NORMAL MODES
------------

These modes are the Cartesian displacements weighted by the diagonal matrix
M(i,i)=1/sqrt(m[i]) where m[i] is the mass of the displaced atom
Thus, these vectors are normalized but *not* orthogonal

                  0          1          2          3          4          5    
      0       0.000000   0.000000   0.000000   0.000000   0.000000   0.000000
      1       0.000000   0.000000   0.000000   0.000000   0.000000   0.000000
      2       0.000000   0.000000   0.000000   0.000000   0.000000   0.000000
      3       0.000000   0.000000   0.000000   0.000000   0.000000   0.000000
      4       0.000000   0.000000   0.000000   0.000000   0.000000   0.000000
      5       0.000000   0.000000   0.000000   0.000000   0.000000   0.000000
      6       0.000000   0.000000   0.000000   0.000000   0.000000   0.000000
      7       0.000000   0.000000   0.000000   0.000000   0.000000   0.000000
      8       0.000000   0.000000   0.000000   0.000000   0.000000   0.000000
      9       0.000000   0.000000   0.000000   0.000000   0.000000   0.000000
     10       0.000000   0.000000   0.000000   0.000000   0.000000   0.000000
     11       0.000000   0.000000   0.000000   0.000000   0.000000   0.000000
                  6          7          8          9         10         11    
      0       0.000173  -0.311583   0.000656   0.021914   0.890646   0.000011
      1      -0.311634  -0.000172  -0.000000  -0.000003   0.000011  -0.890866
      2      -0.000001   0.000127   0.573235  -0.833085   0.019159   0.000003
      3       0.000265  -0.478040  -0.457079  -0.274188  -0.320789  -0.000003
      4       0.608654   0.000337   0.000001   0.000000  -0.000001   0.048220
      5       0.000033  -0.058674  -0.120619   0.179639   0.163673   0.000001
      6       0.470202   0.337776   0.228332   0.130166  -0.121148  -0.120807
      7      -0.206076   0.469674  -0.396502  -0.227956   0.126257   0.257506
      8      -0.050867   0.029269  -0.120897   0.173528  -0.087891  -0.145309
      9      -0.470576   0.337255   0.228332   0.130167  -0.121151   0.120804
     10      -0.205556  -0.469902   0.396502   0.227958  -0.126263   0.257501
     11       0.050835   0.029325  -0.120897   0.173529  -0.087895   0.145306


-----------
IR SPECTRUM
-----------

 Mode   freq       eps      Int      T**2         TX        TY        TZ
       cm**-1   L/(mol*cm) km/mol    a.u.
----------------------------------------------------------------------------
  6:    553.74   0.000295    1.49  0.000166  ( 0.000007 -0.012895 -0.000000)
  7:    553.84   0.000294    1.48  0.000165  (-0.012861 -0.000007  0.000005)
  8:    752.65   0.002428   12.27  0.001007  ( 0.000080 -0.000000  0.031729)
  9:   1117.28   0.009324   47.12  0.002604  ( 0.003229 -0.000000 -0.050928)
 10:   1155.67   0.065715  332.10  0.017745  ( 0.133205  0.000002  0.001212)
 11:   1157.74   0.065691  331.98  0.017707  ( 0.000002 -0.133067  0.000000)

* The epsilon (eps) is given for a Dirac delta lineshape.
** The dipole moment derivative (T) already includes vibrational overlap.

The first frequency considered to be a vibration is 6
The total number of vibrations considered is 6


--------------------------
THERMOCHEMISTRY AT 298.15K
--------------------------

Temperature         ... 298.15 K
Pressure            ... 1.00 atm
Total Mass          ... 69.00 AMU

Throughout the following assumptions are being made:
  (1) The electronic state is orbitally nondegenerate
      but the spin degeneracy is treated
  (2) There are no thermally accessible electronically excited states
  (3) Hindered rotations indicated by low frequency modes are not
      treated as such but are treated as vibrations and this may
      cause some error
  (4) All equations used are the standard statistical mechanics
      equations for an ideal gas
  (5) All vibrations are strictly harmonic

freq.     553.74  E(vib)   ...       0.12 
freq.     553.84  E(vib)   ...       0.12 
freq.     752.65  E(vib)   ...       0.06 
freq.    1117.28  E(vib)   ...       0.01 
freq.    1155.67  E(vib)   ...       0.01 
freq.    1157.74  E(vib)   ...       0.01 

------------
INNER ENERGY
------------

The inner energy is: U= E(el) + E(ZPE) + E(vib) + E(rot) + E(trans)
    E(el)   - is the total energy from the electronic structure calculation
              = E(kin-el) + E(nuc-el) + E(el-el) + E(nuc-nuc)
    E(ZPE)  - the the zero temperature vibrational energy from the frequency calculation
    E(vib)  - the the finite temperature correction to E(ZPE) due to population
              of excited vibrational states
    E(rot)  - is the rotational thermal energy
    E(trans)- is the translational thermal energy

Summary of contributions to the inner energy U:
Electronic energy                ...   -337.61977275 Eh
Zero point energy                ...      0.01205361 Eh       7.56 kcal/mol
Thermal vibrational correction   ...      0.00053090 Eh       0.33 kcal/mol
Thermal rotational correction    ...      0.00141627 Eh       0.89 kcal/mol
Thermal translational correction ...      0.00141627 Eh       0.89 kcal/mol
-----------------------------------------------------------------------
Total thermal energy                   -337.60435569 Eh


Summary of corrections to the electronic energy:
(perhaps to be used in another calculation)
Total thermal correction                  0.00336344 Eh       2.11 kcal/mol
Non-thermal (ZPE) correction              0.01205361 Eh       7.56 kcal/mol
-----------------------------------------------------------------------
Total correction                          0.01541706 Eh       9.67 kcal/mol


--------
ENTHALPY
--------

The enthalpy is H = U + kB*T
                kB is Boltzmann's constant
Total free energy                 ...   -337.60435569 Eh 
Thermal Enthalpy correction       ...      0.00094421 Eh       0.59 kcal/mol
-----------------------------------------------------------------------
Total Enthalpy                    ...   -337.60341148 Eh


Note: Rotational entropy computed according to Herzberg 
Infrared and Raman Spectra, Chapter V,1, Van Nostrand Reinhold, 1945 
Point Group:  Cs, Symmetry Number:   1  
Rotational constants in cm-1:     0.374697     0.374498     0.200315 

Vibrational entropy computed according to the QRRHO of S. Grimme
Chem.Eur.J. 2012 18 9955


-------
ENTROPY
-------

The entropy contributions are T*S = T*(S(el)+S(vib)+S(rot)+S(trans))
     S(el)   - electronic entropy
     S(vib)  - vibrational entropy
     S(rot)  - rotational entropy
     S(trans)- translational entropy
The entropies will be listed as multiplied by the temperature to get
units of energy

Electronic entropy                ...      0.00065446 Eh      0.41 kcal/mol
Vibrational entropy               ...      0.00070358 Eh      0.44 kcal/mol
Rotational entropy                ...      0.01119696 Eh      7.03 kcal/mol
Translational entropy             ...      0.01834582 Eh     11.51 kcal/mol
-----------------------------------------------------------------------
Final entropy term                ...      0.03090081 Eh     19.39 kcal/mol

In case the symmetry of your molecule has not been determined correctly
or in case you have a reason to use a different symmetry number we print 
out the resulting rotational entropy values for sn=1,12 :
 --------------------------------------------------------
|  sn= 1 | S(rot)=       0.01119696 Eh      7.03 kcal/mol|
|  sn= 2 | S(rot)=       0.01054250 Eh      6.62 kcal/mol|
|  sn= 3 | S(rot)=       0.01015967 Eh      6.38 kcal/mol|
|  sn= 4 | S(rot)=       0.00988805 Eh      6.20 kcal/mol|
|  sn= 5 | S(rot)=       0.00967736 Eh      6.07 kcal/mol|
|  sn= 6 | S(rot)=       0.00950522 Eh      5.96 kcal/mol|
|  sn= 7 | S(rot)=       0.00935967 Eh      5.87 kcal/mol|
|  sn= 8 | S(rot)=       0.00923359 Eh      5.79 kcal/mol|
|  sn= 9 | S(rot)=       0.00912238 Eh      5.72 kcal/mol|
|  sn=10 | S(rot)=       0.00902290 Eh      5.66 kcal/mol|
|  sn=11 | S(rot)=       0.00893291 Eh      5.61 kcal/mol|
|  sn=12 | S(rot)=       0.00885076 Eh      5.55 kcal/mol|
 --------------------------------------------------------


-------------------
GIBBS FREE ENERGY
-------------------

The Gibbs free energy is G = H - T*S

Total enthalpy                    ...   -337.60341148 Eh 
Total entropy correction          ...     -0.03090081 Eh    -19.39 kcal/mol
-----------------------------------------------------------------------
Final Gibbs free energy         ...   -337.63431230 Eh

For completeness - the Gibbs free energy minus the electronic energy
G-E(el)                           ...     -0.01453955 Eh     -9.12 kcal/mol


Timings for individual modules:

Sum of individual times         ...      133.271 sec (=   2.221 min)
GTO integral calculation        ...       42.317 sec (=   0.705 min)  31.8 %
SCF iterations                  ...       56.414 sec (=   0.940 min)  42.3 %
SCF Gradient evaluation         ...       12.271 sec (=   0.205 min)   9.2 %
Geometry relaxation             ...        0.242 sec (=   0.004 min)   0.2 %
Analytical frequency calculation...       22.028 sec (=   0.367 min)  16.5 %
                             ****ORCA TERMINATED NORMALLY****
TOTAL RUN TIME: 0 days 0 hours 2 minutes 26 seconds 422 msec

slurmID:    32260049
totalRuntime[s]:    146.463175205
