
                                 *****************
                                 * O   R   C   A *
                                 *****************

                                            #,                                       
                                            ###                                      
                                            ####                                     
                                            #####                                    
                                            ######                                   
                                           ########,                                 
                                     ,,################,,,,,                         
                               ,,#################################,,                 
                          ,,##########################################,,             
                       ,#########################################, ''#####,          
                    ,#############################################,,   '####,        
                  ,##################################################,,,,####,       
                ,###########''''           ''''###############################       
              ,#####''   ,,,,##########,,,,          '''####'''          '####       
            ,##' ,,,,###########################,,,                        '##       
           ' ,,###''''                  '''############,,,                           
         ,,##''                                '''############,,,,        ,,,,,,###''
      ,#''                                            '''#######################'''  
     '                                                          ''''####''''         
             ,#######,   #######,   ,#######,      ##                                
            ,#'     '#,  ##    ##  ,#'     '#,    #''#        ######   ,####,        
            ##       ##  ##   ,#'  ##            #'  '#       #        #'  '#        
            ##       ##  #######   ##           ,######,      #####,   #    #        
            '#,     ,#'  ##    ##  '#,     ,#' ,#      #,         ##   #,  ,#        
             '#######'   ##     ##  '#######'  #'      '#     #####' # '####'        



                  #######################################################
                  #                        -***-                        #
                  #          Department of theory and spectroscopy      #
                  #    Directorship and core code : Frank Neese         #
                  #        Max Planck Institute fuer Kohlenforschung    #
                  #                Kaiser Wilhelm Platz 1               #
                  #                 D-45470 Muelheim/Ruhr               #
                  #                      Germany                        #
                  #                                                     #
                  #                  All rights reserved                #
                  #                        -***-                        #
                  #######################################################


                         Program Version 5.0.4 -  RELEASE  -


 With contributions from (in alphabetic order):
   Daniel Aravena         : Magnetic Suceptibility
   Michael Atanasov       : Ab Initio Ligand Field Theory (pilot matlab implementation)
   Alexander A. Auer      : GIAO ZORA, VPT2 properties, NMR spectrum
   Ute Becker             : Parallelization
   Giovanni Bistoni       : ED, misc. LED, open-shell LED, HFLD
   Martin Brehm           : Molecular dynamics
   Dmytro Bykov           : SCF Hessian
   Vijay G. Chilkuri      : MRCI spin determinant printing, contributions to CSF-ICE
   Dipayan Datta          : RHF DLPNO-CCSD density
   Achintya Kumar Dutta   : EOM-CC, STEOM-CC
   Dmitry Ganyushin       : Spin-Orbit,Spin-Spin,Magnetic field MRCI
   Miquel Garcia          : C-PCM and meta-GGA Hessian, CC/C-PCM, Gaussian charge scheme
   Yang Guo               : DLPNO-NEVPT2, F12-NEVPT2, CIM, IAO-localization
   Andreas Hansen         : Spin unrestricted coupled pair/coupled cluster methods
   Benjamin Helmich-Paris : MC-RPA, TRAH-SCF, COSX integrals
   Lee Huntington         : MR-EOM, pCC
   Robert Izsak           : Overlap fitted RIJCOSX, COSX-SCS-MP3, EOM
   Marcus Kettner         : VPT2
   Christian Kollmar      : KDIIS, OOCD, Brueckner-CCSD(T), CCSD density, CASPT2, CASPT2-K
   Simone Kossmann        : Meta GGA functionals, TD-DFT gradient, OOMP2, MP2 Hessian
   Martin Krupicka        : Initial AUTO-CI
   Lucas Lang             : DCDCAS
   Marvin Lechner         : AUTO-CI (C++ implementation), FIC-MRCC
   Dagmar Lenk            : GEPOL surface, SMD
   Dimitrios Liakos       : Extrapolation schemes; Compound Job, initial MDCI parallelization
   Dimitrios Manganas     : Further ROCIS development; embedding schemes
   Dimitrios Pantazis     : SARC Basis sets
   Anastasios Papadopoulos: AUTO-CI, single reference methods and gradients
   Taras Petrenko         : DFT Hessian,TD-DFT gradient, ASA, ECA, R-Raman, ABS, FL, XAS/XES, NRVS
   Peter Pinski           : DLPNO-MP2, DLPNO-MP2 Gradient
   Christoph Reimann      : Effective Core Potentials
   Marius Retegan         : Local ZFS, SOC
   Christoph Riplinger    : Optimizer, TS searches, QM/MM, DLPNO-CCSD(T), (RO)-DLPNO pert. Triples
   Tobias Risthaus        : Range-separated hybrids, TD-DFT gradient, RPA, STAB
   Michael Roemelt        : Original ROCIS implementation
   Masaaki Saitow         : Open-shell DLPNO-CCSD energy and density
   Barbara Sandhoefer     : DKH picture change effects
   Avijit Sen             : IP-ROCIS
   Kantharuban Sivalingam : CASSCF convergence, NEVPT2, FIC-MRCI
   Bernardo de Souza      : ESD, SOC TD-DFT
   Georgi Stoychev        : AutoAux, RI-MP2 NMR, DLPNO-MP2 response
   Willem Van den Heuvel  : Paramagnetic NMR
   Boris Wezisla          : Elementary symmetry handling
   Frank Wennmohs         : Technical directorship


 We gratefully acknowledge several colleagues who have allowed us to
 interface, adapt or use parts of their codes:
   Stefan Grimme, W. Hujo, H. Kruse, P. Pracht,  : VdW corrections, initial TS optimization,
                  C. Bannwarth, S. Ehlert          DFT functionals, gCP, sTDA/sTD-DF
   Ed Valeev, F. Pavosevic, A. Kumar             : LibInt (2-el integral package), F12 methods
   Garnet Chan, S. Sharma, J. Yang, R. Olivares  : DMRG
   Ulf Ekstrom                                   : XCFun DFT Library
   Mihaly Kallay                                 : mrcc  (arbitrary order and MRCC methods)
   Jiri Pittner, Ondrej Demel                    : Mk-CCSD
   Frank Weinhold                                : gennbo (NPA and NBO analysis)
   Christopher J. Cramer and Donald G. Truhlar   : smd solvation model
   Lars Goerigk                                  : TD-DFT with DH, B97 family of functionals
   V. Asgeirsson, H. Jonsson                     : NEB implementation
   FAccTs GmbH                                   : IRC, NEB, NEB-TS, DLPNO-Multilevel, CI-OPT
                                                   MM, QMMM, 2- and 3-layer-ONIOM, Crystal-QMMM,
                                                   LR-CPCM, SF, NACMEs, symmetry and pop. for TD-DFT,
                                                   nearIR, NL-DFT gradient (VV10), updates on ESD,
                                                   ML-optimized integration grids
   S Lehtola, MJT Oliveira, MAL Marques          : LibXC Library
   Liviu Ungur et al                             : ANISO software


 Your calculation uses the libint2 library for the computation of 2-el integrals
 For citations please refer to: http://libint.valeyev.net

 Your ORCA version has been built with support for libXC version: 5.1.0
 For citations please refer to: https://tddft.org/programs/libxc/

 This ORCA versions uses:
   CBLAS   interface :  Fast vector & matrix operations
   LAPACKE interface :  Fast linear algebra routines
   SCALAPACK package :  Parallel linear algebra routines
   Shared memory     :  Shared parallel matrices
   BLAS/LAPACK       :  OpenBLAS 0.3.15  USE64BITINT DYNAMIC_ARCH NO_AFFINITY SkylakeX SINGLE_THREADED
        Core in use  :  SkylakeX
   Copyright (c) 2011-2014, The OpenBLAS Project


Your calculation utilizes the atom-pairwise dispersion correction
with the zero-damping scheme (D30)
Cite in your paper:
S.Grimme, J.Antony, S.Ehrlich and H.Krieg, J.Chem.Phys., 132, (2010), 154104 
   

XCFun DFT library Copyright 2009-2010 Ulf Ekstrom and contributors.
See http://admol.org/xcfun for more information.
This is free software; see the source code for copying conditions.
There is ABSOLUTELY NO WARRANTY; not even for MERCHANTABILITY or FITNESS FOR A PARTICULAR PURPOSE.
For details see the documentation.
Scientific users of this library should cite U. Ekstrom, L. Visscher, R. Bast, A. J. Thorvaldsen and K. Ruud;
J.Chem.Theor.Comp. 2010, DOI: 10.1021/ct100117s
XCFun Version 0.99 

================================================================================

----- Orbital basis set information -----
Your calculation utilizes the basis: def2-TZVPD
   F. Weigend and R. Ahlrichs, Phys. Chem. Chem. Phys. 7, 3297 (2005).
   D. Rappoport and F. Furche, J. Chem. Phys. 133 134105 (2010).

----- AuxJ basis set information -----
Your calculation utilizes the auxiliary basis: def2/J
   F. Weigend, Phys. Chem. Chem. Phys. 8, 1057 (2006).

================================================================================
                                        WARNINGS
                       Please study these warnings very carefully!
================================================================================


WARNING: Geometry Optimization
  ===> : Switching off AutoStart
         For restart on a previous wavefunction, please use MOREAD

INFO   : the flag for use of the SHARK integral package has been found!

================================================================================
                                       INPUT FILE
================================================================================
NAME = /beegfs/scratch/ispackman/PFAS_EPR_calcs/benchmark/JChemEd_CF3_radical/CF3_radical_97.5_degrees_IN-PROGRESS/CF3_radical_97.5_degrees.inp
|  1> ! UKS TightSCF wB97x-D3 def2-TZVPD xyzfile opt freq
|  2> 
|  3> # CF3 radical 97.5 degrees fixed
|  4> 
|  5> %maxcore 1000
|  6> %pal
|  7> nprocs 18
|  8> end
|  9> 
| 10> %geom Constraints
| 11>         { A * 0 * C }
| 12>     end
| 13> end
| 14> * xyz 0 2
| 15> C 0.00 0.00 0.00
| 16> F 1.1416170271 0.0000000000 -0.6526373905
| 17> F -0.5708085135 0.9886693468 -0.6526373905
| 18> F -0.5708085135 -0.9886693468 -0.6526373905
| 19> **                         ****END OF INPUT****
================================================================================

                       *****************************
                       * Geometry Optimization Run *
                       *****************************

Geometry optimization settings:
Update method            Update   .... BFGS
Choice of coordinates    CoordSys .... Z-matrix Internals
Initial Hessian          InHess   .... Almoef's Model

Convergence Tolerances:
Energy Change            TolE     ....  5.0000e-06 Eh
Max. Gradient            TolMAXG  ....  3.0000e-04 Eh/bohr
RMS Gradient             TolRMSG  ....  1.0000e-04 Eh/bohr
Max. Displacement        TolMAXD  ....  4.0000e-03 bohr
RMS Displacement         TolRMSD  ....  2.0000e-03 bohr
Strict Convergence                ....  False
------------------------------------------------------------------------------
                        ORCA OPTIMIZATION COORDINATE SETUP
------------------------------------------------------------------------------

The optimization will be done in new redundant internal coordinates
Making redundant internal coordinates   ...  (new redundants) done
Evaluating the initial hessian          ...  (Almloef) done
Evaluating the coordinates              ...  done
Calculating the B-matrix                .... done
Calculating the G-matrix                .... done
Diagonalizing the G-matrix              .... done
Imposing constraints:
 Iter   0:  RMS(Cart)=    0.0000000000 RMS(Int)=    0.0000000000
CONVERGED
Will constrain atom 0 coordinate 1 
Will constrain atom 0 coordinate 2 
Will constrain atom 1 coordinate 2 
The first mode is                       ....    1
The number of degrees of freedom        ....    6
Storing new coordinates                 .... done

    -----------------------------------------------------------------
                    Redundant Internal Coordinates


    -----------------------------------------------------------------
         Definition                    Initial Value    Approx d2E/dq
    -----------------------------------------------------------------
      1. B(F   1,C   0)                  1.3150         0.684896   
      2. B(F   2,C   0)                  1.3150         0.684896   
      3. B(F   3,C   0)                  1.3150         0.684896   
      4. A(F   2,C   0,F   3)           97.5000         0.440101 C 
      5. A(F   1,C   0,F   2)           97.5000         0.440101 C 
      6. A(F   1,C   0,F   3)           97.5000         0.440101 C 
      7. I(F   1,F   3,F   2,C   0)     78.5821         0.002632   
    -----------------------------------------------------------------

Number of atoms                         .... 4
Number of degrees of freedom            .... 7

         *************************************************************
         *                GEOMETRY OPTIMIZATION CYCLE   1            *
         *************************************************************
---------------------------------
CARTESIAN COORDINATES (ANGSTROEM)
---------------------------------
  C      0.000000    0.000000    0.000000
  F      1.141617    0.000000   -0.652637
  F     -0.570809    0.988669   -0.652637
  F     -0.570809   -0.988669   -0.652637

----------------------------
CARTESIAN COORDINATES (A.U.)
----------------------------
  NO LB      ZA    FRAG     MASS         X           Y           Z
   0 C     6.0000    0    12.011    0.000000    0.000000    0.000000
   1 F     9.0000    0    18.998    2.157344    0.000000   -1.233306
   2 F     9.0000    0    18.998   -1.078672    1.868314   -1.233306
   3 F     9.0000    0    18.998   -1.078672   -1.868314   -1.233306

--------------------------------
INTERNAL COORDINATES (ANGSTROEM)
--------------------------------
 C      0   0   0     0.000000000000     0.00000000     0.00000000
 F      1   0   0     1.315000000016     0.00000000     0.00000000
 F      1   2   0     1.314999999949    97.50000000     0.00000000
 F      1   2   3     1.314999999949    97.50000000    98.63393306

---------------------------
INTERNAL COORDINATES (A.U.)
---------------------------
 C      0   0   0     0.000000000000     0.00000000     0.00000000
 F      1   0   0     2.484989866138     0.00000000     0.00000000
 F      1   2   0     2.484989866009    97.50000000     0.00000000
 F      1   2   3     2.484989866009    97.50000000    98.63393306

---------------------
BASIS SET INFORMATION
---------------------
There are 2 groups of distinct atoms

 Group   1 Type C   : 12s6p3d1f contracted to 6s3p3d1f pattern {621111/411/111/1}
 Group   2 Type F   : 12s7p3d1f contracted to 6s4p3d1f pattern {621111/4111/111/1}

Atom   0C    basis set group =>   1
Atom   1F    basis set group =>   2
Atom   2F    basis set group =>   2
Atom   3F    basis set group =>   2
---------------------------------
AUXILIARY/J BASIS SET INFORMATION
---------------------------------
There are 2 groups of distinct atoms

 Group   1 Type C   : 12s5p4d2f1g contracted to 6s4p3d1f1g pattern {711111/2111/211/2/1}
 Group   2 Type F   : 12s5p4d2f1g contracted to 6s4p3d1f1g pattern {711111/2111/211/2/1}

Atom   0C    basis set group =>   1
Atom   1F    basis set group =>   2
Atom   2F    basis set group =>   2
Atom   3F    basis set group =>   2


           ************************************************************
           *        Program running with 18 parallel MPI-processes    *
           *              working on a common directory               *
           ************************************************************
------------------------------------------------------------------------------
                           ORCA GTO INTEGRAL CALCULATION
                           -- RI-GTO INTEGRALS CHOSEN --
------------------------------------------------------------------------------
------------------------------------------------------------------------------
                   ___                                                        
                  /   \      - P O W E R E D   B Y -                         
                 /     \                                                     
                 |  |  |   _    _      __       _____    __    __             
                 |  |  |  | |  | |    /  \     |  _  \  |  |  /  |          
                  \  \/   | |  | |   /    \    | | | |  |  | /  /          
                 / \  \   | |__| |  /  /\  \   | |_| |  |  |/  /          
                |  |  |   |  __  | /  /__\  \  |    /   |      \           
                |  |  |   | |  | | |   __   |  |    \   |  |\   \          
                \     /   | |  | | |  |  |  |  | |\  \  |  | \   \       
                 \___/    |_|  |_| |__|  |__|  |_| \__\ |__|  \__/        
                                                                              
                      - O R C A' S   B I G   F R I E N D -                    
                                      &                                       
                       - I N T E G R A L  F E E D E R -                       
                                                                              
 v1 FN, 2020, v2 2021                                                         
------------------------------------------------------------------------------


Reading SHARK input file /beegfs/scratch/ispackman/PFAS_EPR_calcs/benchmark/JChemEd_CF3_radical/CF3_radical_97.5_degrees_IN-PROGRESS/CF3_radical_97.5_degrees.SHARKINP.tmp ... ok
----------------------
SHARK INTEGRAL PACKAGE
----------------------

Number of atoms                             ...      4
Number of basis functions                   ...    157
Number of shells                            ...     55
Maximum angular momentum                    ...      3
Integral batch strategy                     ... SHARK/LIBINT Hybrid
RI-J (if used) integral strategy            ... SPLIT-RIJ (Revised 2003 algorithm where possible)
Printlevel                                  ...      1
Contraction scheme used                     ... SEGMENTED contraction
Coulomb Range Separation                    ... NOT USED
Exchange Range Separation                   ... Long Range
   Mu parameter                             ...  0.250000
   Scaling (regular/separated)              ...  0.195728  0.804272
Finite Nucleus Model                        ... NOT USED
Auxiliary Coulomb fitting basis             ... AVAILABLE
   # of basis functions in Aux-J            ...    196
   # of shells in Aux-J                     ...     60
   Maximum angular momentum in Aux-J        ...      4
Auxiliary J/K fitting basis                 ... NOT available
Auxiliary Correlation fitting basis         ... NOT available
Auxiliary 'external' fitting basis          ... NOT available
Integral threshold                          ...     2.500000e-11
Primitive cut-off                           ...     2.500000e-12
Primitive pair pre-selection threshold      ...     2.500000e-12

Calculating pre-screening integrals         ... done (  0.0 sec) Dimension = 55
Organizing shell pair data                  ... done (  0.0 sec)
Shell pair information
Total number of shell pairs                 ...      1540
Shell pairs after pre-screening             ...      1516
Total number of primitive shell pairs       ...      4274
Primitive shell pairs kept                  ...      3587
          la=0 lb=0:    282 shell pairs
          la=1 lb=0:    360 shell pairs
          la=1 lb=1:    120 shell pairs
          la=2 lb=0:    282 shell pairs
          la=2 lb=1:    180 shell pairs
          la=2 lb=2:     78 shell pairs
          la=3 lb=0:     96 shell pairs
          la=3 lb=1:     60 shell pairs
          la=3 lb=2:     48 shell pairs
          la=3 lb=3:     10 shell pairs

Calculating one electron integrals          ... done (  0.0 sec)
Calculating RI/J V-Matrix + Cholesky decomp.... done (  0.0 sec)
Calculating Nuclear repulsion               ... done (  0.0 sec) ENN=    130.223297272998 Eh

SHARK setup successfully completed in   0.3 seconds

Maximum memory used throughout the entire GTOINT-calculation: 15.2 MB


           ************************************************************
           *        Program running with 18 parallel MPI-processes    *
           *              working on a common directory               *
           ************************************************************
-------------------------------------------------------------------------------
                                 ORCA SCF
-------------------------------------------------------------------------------

------------
SCF SETTINGS
------------
Hamiltonian:
 Density Functional     Method          .... DFT(GTOs)
 Exchange Functional    Exchange        .... WB97X-D3
 Correlation Functional Correlation     .... WB97X-D3
 Gradients option       PostSCFGGA      .... off
 Hybrid DFT is turned on
   Fraction HF Exchange ScalHFX         ....  0.195728
   Scaling of DF-GGA-X  ScalDFX         ....  0.000000
   Scaling of DF-GGA-C  ScalDFC         ....  1.000000
   Scaling of DF-LDA-C  ScalLDAC        ....  1.000000
   Perturbative correction              ....  0.000000
   Density functional embedding theory  .... OFF
 Long-range corrected/Screened/Range-Separated Hybrid DFT is turned on
   Amount of maximum screened exact exchange              ....  0.804272
   Range separation parameter mu (erf(mu*r12)/r12)        ....  0.250000
 RI-approximation to the Coulomb term is turned on
   Number of AuxJ basis functions       .... 196
   RIJ-COSX (HFX calculated with COS-X)).... on


General Settings:
 Integral files         IntName         .... /beegfs/scratch/ispackman/PFAS_EPR_calcs/benchmark/JChemEd_CF3_radical/CF3_radical_97.5_degrees_IN-PROGRESS/CF3_radical_97.5_degrees
 Hartree-Fock type      HFTyp           .... UHF
 Total Charge           Charge          ....    0
 Multiplicity           Mult            ....    2
 Number of Electrons    NEL             ....   33
 Basis Dimension        Dim             ....  157
 Nuclear Repulsion      ENuc            ....    130.2232972730 Eh

Convergence Acceleration:
 DIIS                   CNVDIIS         .... on
   Start iteration      DIISMaxIt       ....    12
   Startup error        DIISStart       ....  0.200000
   # of expansion vecs  DIISMaxEq       ....     5
   Bias factor          DIISBfac        ....   1.050
   Max. coefficient     DIISMaxC        ....  10.000
 Trust-Rad. Augm. Hess. CNVTRAH         .... auto
   Auto Start mean grad. ratio tolernc. ....  1.125000
   Auto Start start iteration           ....    20
   Auto Start num. interpolation iter.  ....    10
   Max. Number of Micro iterations      ....    16
   Max. Number of Macro iterations      .... Maxiter - #DIIS iter
   Number of Davidson start vectors     ....     2
   Converg. threshold I  (grad. norm)   ....   1.000e-05
   Converg. threshold II (energy diff.) ....   1.000e-08
   Grad. Scal. Fac. for Micro threshold ....   0.100
   Minimum threshold for Micro iter.    ....   0.010
   NR start threshold (gradient norm)   ....   0.001
   Initial trust radius                 ....   0.400
   Minimum AH scaling param. (alpha)    ....   1.000
   Maximum AH scaling param. (alpha)    .... 1000.000
   Orbital update algorithm             .... Taylor
   White noise on init. David. guess    .... on
   Maximum white noise                  ....   0.010
   Quad. conv. algorithm                .... NR
 SOSCF                  CNVSOSCF        .... off
 Level Shifting         CNVShift        .... on
   Level shift para.    LevelShift      ....    0.2500
   Turn off err/grad.   ShiftErr        ....    0.0010
 Zerner damping         CNVZerner       .... off
 Static damping         CNVDamp         .... on
   Fraction old density DampFac         ....    0.7000
   Max. Damping (<1)    DampMax         ....    0.9800
   Min. Damping (>=0)   DampMin         ....    0.0000
   Turn off err/grad.   DampErr         ....    0.1000
 Fernandez-Rico         CNVRico         .... off

SCF Procedure:
 Maximum # iterations   MaxIter         ....   125
 SCF integral mode      SCFMode         .... Direct
   Integral package                     .... SHARK and LIBINT hybrid scheme
 Reset frequency        DirectResetFreq ....    20
 Integral Threshold     Thresh          ....  2.500e-11 Eh
 Primitive CutOff       TCut            ....  2.500e-12 Eh

Convergence Tolerance:
 Convergence Check Mode ConvCheckMode   .... Total+1el-Energy
 Convergence forced     ConvForced      .... 0
 Energy Change          TolE            ....  1.000e-08 Eh
 1-El. energy change                    ....  1.000e-05 Eh
 DIIS Error             TolErr          ....  5.000e-07


Diagonalization of the overlap matrix:
Smallest eigenvalue                        ... 3.603e-04
Time for diagonalization                   ...    0.007 sec
Threshold for overlap eigenvalues          ... 1.000e-08
Number of eigenvalues below threshold      ... 0
Time for construction of square roots      ...    0.028 sec
Total time needed                          ...    0.037 sec

Time for model grid setup =    0.067 sec

------------------------------
INITIAL GUESS: MODEL POTENTIAL
------------------------------
Loading Hartree-Fock densities                     ... done
Calculating cut-offs                               ... done
Initializing the effective Hamiltonian             ... done
Setting up the integral package (SHARK)            ... done
Starting the Coulomb interaction                   ... done (   0.1 sec)
Reading the grid                                   ... done
Mapping shells                                     ... done
Starting the XC term evaluation                    ... done (   0.0 sec)
  promolecular density results
     # of electrons  =     33.000185425
     EX              =    -35.106782137
     EC              =     -1.149811277
     EX+EC           =    -36.256593413
Transforming the Hamiltonian                       ... done (   0.0 sec)
Diagonalizing the Hamiltonian                      ... done (   0.0 sec)
Back transforming the eigenvectors                 ... done (   0.0 sec)
Now organizing SCF variables                       ... done
                      ------------------
                      INITIAL GUESS DONE (   0.2 sec)
                      ------------------
-------------------
DFT GRID GENERATION
-------------------

General Integration Accuracy     IntAcc      ... 4.388
Radial Grid Type                 RadialGrid  ... OptM3 with GC (2021)
Angular Grid (max. ang.)         AngularGrid ... 4 (Lebedev-302)
Angular grid pruning method      GridPruning ... 4 (adaptive)
Weight generation scheme         WeightScheme... Becke
Basis function cutoff            BFCut       ... 1.0000e-11
Integration weight cutoff        WCut        ... 1.0000e-14
Angular grids for H and He will be reduced by one unit
Partially contracted basis set               ... off
Rotationally invariant grid construction     ... off

Total number of grid points                  ...    25775
Total number of batches                      ...      404
Average number of points per batch           ...       63
Average number of grid points per atom       ...     6444
Time for grid setup =    0.162 sec

--------------------
COSX GRID GENERATION
--------------------

GRIDX 1
-------
General Integration Accuracy     IntAcc      ... 3.816
Radial Grid Type                 RadialGrid  ... OptM3 with GC (2021)
Angular Grid (max. ang.)         AngularGrid ... 1 (Lebedev-50)
Angular grid pruning method      GridPruning ... 4 (adaptive)
Weight generation scheme         WeightScheme... Becke
Basis function cutoff            BFCut       ... 1.0000e-11
Integration weight cutoff        WCut        ... 1.0000e-14
Angular grids for H and He will be reduced by one unit
Partially contracted basis set               ... on
Rotationally invariant grid construction     ... off

Total number of grid points                  ...     3274
Total number of batches                      ...       53
Average number of points per batch           ...       61
Average number of grid points per atom       ...      818
UseSFitting                                  ... on

GRIDX 2
-------
General Integration Accuracy     IntAcc      ... 4.020
Radial Grid Type                 RadialGrid  ... OptM3 with GC (2021)
Angular Grid (max. ang.)         AngularGrid ... 2 (Lebedev-110)
Angular grid pruning method      GridPruning ... 4 (adaptive)
Weight generation scheme         WeightScheme... Becke
Basis function cutoff            BFCut       ... 1.0000e-11
Integration weight cutoff        WCut        ... 1.0000e-14
Angular grids for H and He will be reduced by one unit
Partially contracted basis set               ... on
Rotationally invariant grid construction     ... off

Total number of grid points                  ...     9129
Total number of batches                      ...      145
Average number of points per batch           ...       62
Average number of grid points per atom       ...     2282
UseSFitting                                  ... on

GRIDX 3
-------
General Integration Accuracy     IntAcc      ... 4.338
Radial Grid Type                 RadialGrid  ... OptM3 with GC (2021)
Angular Grid (max. ang.)         AngularGrid ... 3 (Lebedev-194)
Angular grid pruning method      GridPruning ... 4 (adaptive)
Weight generation scheme         WeightScheme... Becke
Basis function cutoff            BFCut       ... 1.0000e-11
Integration weight cutoff        WCut        ... 1.0000e-14
Angular grids for H and He will be reduced by one unit
Partially contracted basis set               ... on
Rotationally invariant grid construction     ... off

Total number of grid points                  ...    19684
Total number of batches                      ...      310
Average number of points per batch           ...       63
Average number of grid points per atom       ...     4921
UseSFitting                                  ... on

Time for X-Grid setup             =    0.363 sec

--------------
SCF ITERATIONS
--------------
ITER       Energy         Delta-E        Max-DP      RMS-DP      [F,P]     Damp
               ***  Starting incremental Fock matrix formation  ***
  0   -337.5093249495   0.000000000000 0.01950152  0.00042384  0.0717000 0.7000
  1   -337.5401730840  -0.030848134548 0.01112195  0.00027986  0.0336607 0.7000
                               ***Turning on DIIS***
  2   -337.5528535662  -0.012680482148 0.02674749  0.00052437  0.0170141 0.0000
  3   -337.5752087834  -0.022355217290 0.00678363  0.00015692  0.0151518 0.0000
  4   -337.5788646974  -0.003655913962 0.00492154  0.00007876  0.0034600 0.0000
  5   -337.5790756107  -0.000210913337 0.00288206  0.00004620  0.0019725 0.0000
  6   -337.5791387560  -0.000063145260 0.00228794  0.00004144  0.0008529 0.0000
               *** Restarting incremental Fock matrix formation ***
                                   *** Resetting DIIS ***
  7   -337.5791646545  -0.000025898531 0.00046651  0.00000732  0.0001934 0.0000
  8   -337.5791655488  -0.000000894259 0.00007734  0.00000213  0.0001046 0.0000
  9   -337.5791657675  -0.000000218657 0.00006818  0.00000167  0.0001006 0.0000
 10   -337.5791658877  -0.000000120272 0.00004891  0.00000060  0.0000124 0.0000
 11   -337.5791658908  -0.000000003061 0.00001122  0.00000014  0.0000020 0.0000
                            ***DIIS convergence achieved***

               *****************************************************
               *                     SUCCESS                       *
               *           SCF CONVERGED AFTER  12 CYCLES          *
               *****************************************************

Old exchange energy                            =    -10.544538533 Eh
New exchange energy                            =    -10.544531076 Eh
Exchange energy change after final integration =      0.000007457 Eh
Total energy after final integration           =   -337.579158434 Eh
Final COS-X integration done in                =     0.381 sec

----------------
TOTAL SCF ENERGY
----------------

Total Energy       :         -337.57915843 Eh           -9185.99591 eV

Components:
Nuclear Repulsion  :          130.22329727 Eh            3543.55607 eV
Electronic Energy  :         -467.80245571 Eh          -12729.55198 eV
One Electron Energy:         -727.43307013 Eh          -19794.46017 eV
Two Electron Energy:          259.63061442 Eh            7064.90819 eV
Max COSX asymmetry :            0.00000040 Eh               0.00001 eV

Virial components:
Potential Energy   :         -674.47930553 Eh          -18353.51498 eV
Kinetic Energy     :          336.90014709 Eh            9167.51907 eV
Virial Ratio       :            2.00201547


DFT components:
N(Alpha)           :       16.999880899592 electrons
N(Beta)            :       15.999887898334 electrons
N(Total)           :       32.999768797927 electrons
E(XC)              :      -26.225269079806 Eh       
DFET-embed. en.    :        0.000000000000 Eh       

---------------
SCF CONVERGENCE
---------------

  Last Energy change         ...   -8.8795e-10  Tolerance :   1.0000e-08
  Last MAX-Density change    ...    0.0000e+00  Tolerance :   1.0000e-07
  Last RMS-Density change    ...    0.0000e+00  Tolerance :   5.0000e-09
  Last DIIS Error            ...    7.9725e-07  Tolerance :   5.0000e-07

             **** THE GBW FILE WAS UPDATED (/beegfs/scratch/ispackman/PFAS_EPR_calcs/benchmark/JChemEd_CF3_radical/CF3_radical_97.5_degrees_IN-PROGRESS/CF3_radical_97.5_degrees.gbw) ****
             **** DENSITY /beegfs/scratch/ispackman/PFAS_EPR_calcs/benchmark/JChemEd_CF3_radical/CF3_radical_97.5_degrees_IN-PROGRESS/CF3_radical_97.5_degrees.scfp WAS UPDATED ****
             **** ENERGY FILE WAS UPDATED (/beegfs/scratch/ispackman/PFAS_EPR_calcs/benchmark/JChemEd_CF3_radical/CF3_radical_97.5_degrees_IN-PROGRESS/CF3_radical_97.5_degrees.en.tmp) ****
----------------------
UHF SPIN CONTAMINATION
----------------------

Warning: in a DFT calculation there is little theoretical justification to 
         calculate <S**2> as in Hartree-Fock theory. We will do it anyways
         but you should keep in mind that the values have only limited relevance

Expectation value of <S**2>     :     0.752236
Ideal value S*(S+1) for S=0.5   :     0.750000
Deviation                       :     0.002236

             **** THE GBW FILE WAS UPDATED (/beegfs/scratch/ispackman/PFAS_EPR_calcs/benchmark/JChemEd_CF3_radical/CF3_radical_97.5_degrees_IN-PROGRESS/CF3_radical_97.5_degrees.gbw) ****
             **** DENSITY /beegfs/scratch/ispackman/PFAS_EPR_calcs/benchmark/JChemEd_CF3_radical/CF3_radical_97.5_degrees_IN-PROGRESS/CF3_radical_97.5_degrees.scfp WAS UPDATED ****
----------------
ORBITAL ENERGIES
----------------
                 SPIN UP ORBITALS
  NO   OCC          E(Eh)            E(eV) 
   0   1.0000     -24.833796      -675.7619 
   1   1.0000     -24.833790      -675.7618 
   2   1.0000     -24.833787      -675.7617 
   3   1.0000     -10.553657      -287.1796 
   4   1.0000      -1.490571       -40.5605 
   5   1.0000      -1.360239       -37.0140 
   6   1.0000      -1.360239       -37.0140 
   7   1.0000      -0.838136       -22.8068 
   8   1.0000      -0.721312       -19.6279 
   9   1.0000      -0.721305       -19.6277 
  10   1.0000      -0.710294       -19.3281 
  11   1.0000      -0.605373       -16.4730 
  12   1.0000      -0.605365       -16.4728 
  13   1.0000      -0.534674       -14.5492 
  14   1.0000      -0.534672       -14.5492 
  15   1.0000      -0.516377       -14.0513 
  16   1.0000      -0.447368       -12.1735 
  17   0.0000       0.072491         1.9726 
  18   0.0000       0.104886         2.8541 
  19   0.0000       0.104886         2.8541 
  20   0.0000       0.111562         3.0357 
  21   0.0000       0.158164         4.3039 
  22   0.0000       0.158165         4.3039 
  23   0.0000       0.173078         4.7097 
  24   0.0000       0.173080         4.7097 
  25   0.0000       0.192827         5.2471 
  26   0.0000       0.206394         5.6163 
  27   0.0000       0.206400         5.6164 
  28   0.0000       0.241486         6.5712 
  29   0.0000       0.285367         7.7652 
  30   0.0000       0.345949         9.4137 
  31   0.0000       0.345954         9.4139 
  32   0.0000       0.355019         9.6606 
  33   0.0000       0.380661        10.3583 
  34   0.0000       0.380662        10.3584 
  35   0.0000       0.402433        10.9508 
  36   0.0000       0.402435        10.9508 
  37   0.0000       0.405365        11.0306 
  38   0.0000       0.436128        11.8677 
  39   0.0000       0.485747        13.2179 
  40   0.0000       0.485753        13.2180 
  41   0.0000       0.535770        14.5790 
  42   0.0000       0.573187        15.5972 
  43   0.0000       0.625195        17.0124 
  44   0.0000       0.625198        17.0125 
  45   0.0000       0.703060        19.1312 
  46   0.0000       0.703066        19.1314 
  47   0.0000       0.708059        19.2673 
  48   0.0000       0.727450        19.7949 
  49   0.0000       0.742395        20.2016 
  50   0.0000       0.742401        20.2018 
  51   0.0000       0.772538        21.0218 
  52   0.0000       0.794172        21.6105 
  53   0.0000       0.794172        21.6105 
  54   0.0000       0.867089        23.5947 
  55   0.0000       0.903959        24.5980 
  56   0.0000       0.903961        24.5980 
  57   0.0000       0.929914        25.3042 
  58   0.0000       0.975284        26.5388 
  59   0.0000       0.975291        26.5390 
  60   0.0000       1.080468        29.4010 
  61   0.0000       1.080469        29.4011 
  62   0.0000       1.117098        30.3978 
  63   0.0000       1.159294        31.5460 
  64   0.0000       1.159309        31.5464 
  65   0.0000       1.170966        31.8636 
  66   0.0000       1.250871        34.0379 
  67   0.0000       1.252562        34.0840 
  68   0.0000       1.252563        34.0840 
  69   0.0000       1.300211        35.3805 
  70   0.0000       1.300212        35.3806 
  71   0.0000       1.352198        36.7952 
  72   0.0000       1.467030        39.9199 
  73   0.0000       1.467051        39.9205 
  74   0.0000       1.648344        44.8537 
  75   0.0000       2.122003        57.7426 
  76   0.0000       2.165282        58.9203 
  77   0.0000       2.165305        58.9209 
  78   0.0000       2.201498        59.9058 
  79   0.0000       2.212071        60.1935 
  80   0.0000       2.213611        60.2354 
  81   0.0000       2.213636        60.2361 
  82   0.0000       2.333184        63.4892 
  83   0.0000       2.333209        63.4899 
  84   0.0000       2.457130        66.8619 
  85   0.0000       2.465584        67.0920 
  86   0.0000       2.465590        67.0921 
  87   0.0000       2.598459        70.7077 
  88   0.0000       2.598460        70.7077 
  89   0.0000       2.884488        78.4909 
  90   0.0000       2.927606        79.6642 
  91   0.0000       2.927637        79.6651 
  92   0.0000       2.970741        80.8380 
  93   0.0000       3.035466        82.5992 
  94   0.0000       3.176341        86.4326 
  95   0.0000       3.176414        86.4346 
  96   0.0000       3.190497        86.8178 
  97   0.0000       3.291451        89.5649 
  98   0.0000       3.291525        89.5670 
  99   0.0000       3.403047        92.6016 
 100   0.0000       3.403061        92.6020 
 101   0.0000       3.441303        93.6426 
 102   0.0000       3.643622        99.1480 
 103   0.0000       3.643639        99.1485 
 104   0.0000       3.672166        99.9247 
 105   0.0000       3.811760       103.7233 
 106   0.0000       3.944976       107.3482 
 107   0.0000       3.945025       107.3496 
 108   0.0000       3.953045       107.5678 
 109   0.0000       4.110322       111.8475 
 110   0.0000       4.110340       111.8480 
 111   0.0000       4.221399       114.8701 
 112   0.0000       4.323814       117.6570 
 113   0.0000       4.323852       117.6580 
 114   0.0000       5.400124       146.9448 
 115   0.0000       5.400145       146.9454 
 116   0.0000       5.541988       150.8052 
 117   0.0000       6.913311       188.1208 
 118   0.0000       6.913334       188.1214 
 119   0.0000       6.918947       188.2741 
 120   0.0000       6.931264       188.6093 
 121   0.0000       6.931275       188.6096 
 122   0.0000       6.934330       188.6927 
 123   0.0000       6.939830       188.8424 
 124   0.0000       6.939865       188.8433 
 125   0.0000       6.962826       189.4681 
 126   0.0000       7.059863       192.1086 
 127   0.0000       7.059934       192.1106 
 128   0.0000       7.174178       195.2193 
 129   0.0000       7.247654       197.2187 
 130   0.0000       7.247660       197.2189 
 131   0.0000       7.268679       197.7908 
 132   0.0000       7.456161       202.8924 
 133   0.0000       7.501718       204.1321 
 134   0.0000       7.623274       207.4398 
 135   0.0000       7.623300       207.4405 
 136   0.0000       7.785383       211.8510 
 137   0.0000       7.785450       211.8529 
 138   0.0000       8.527686       232.0501 
 139   0.0000       8.527699       232.0505 
 140   0.0000       8.578222       233.4253 
 141   0.0000       8.593343       233.8367 
 142   0.0000       8.619288       234.5427 
 143   0.0000       8.619332       234.5440 
 144   0.0000       8.848662       240.7843 
 145   0.0000       8.852300       240.8833 
 146   0.0000       8.852317       240.8838 
 147   0.0000       9.061029       246.5631 
 148   0.0000       9.110131       247.8993 
 149   0.0000       9.110187       247.9008 
 150   0.0000       9.273154       252.3353 
 151   0.0000       9.396187       255.6832 
 152   0.0000       9.396216       255.6840 
 153   0.0000      22.652574       616.4079 
 154   0.0000      57.390361      1561.6711 
 155   0.0000      57.390383      1561.6717 
 156   0.0000      57.496090      1564.5481 

                 SPIN DOWN ORBITALS
  NO   OCC          E(Eh)            E(eV) 
   0   1.0000     -24.830999      -675.6858 
   1   1.0000     -24.830995      -675.6857 
   2   1.0000     -24.830983      -675.6854 
   3   1.0000     -10.540728      -286.8278 
   4   1.0000      -1.481967       -40.3264 
   5   1.0000      -1.351637       -36.7799 
   6   1.0000      -1.351635       -36.7799 
   7   1.0000      -0.819878       -22.3100 
   8   1.0000      -0.710901       -19.3446 
   9   1.0000      -0.710898       -19.3445 
  10   1.0000      -0.668783       -18.1985 
  11   1.0000      -0.593599       -16.1527 
  12   1.0000      -0.593591       -16.1524 
  13   1.0000      -0.527282       -14.3481 
  14   1.0000      -0.527280       -14.3480 
  15   1.0000      -0.513089       -13.9619 
  16   0.0000      -0.096139        -2.6161 
  17   0.0000       0.082834         2.2540 
  18   0.0000       0.108398         2.9497 
  19   0.0000       0.108399         2.9497 
  20   0.0000       0.125685         3.4201 
  21   0.0000       0.164304         4.4709 
  22   0.0000       0.164305         4.4710 
  23   0.0000       0.178101         4.8464 
  24   0.0000       0.178101         4.8464 
  25   0.0000       0.203224         5.5300 
  26   0.0000       0.229194         6.2367 
  27   0.0000       0.229194         6.2367 
  28   0.0000       0.242064         6.5869 
  29   0.0000       0.291128         7.9220 
  30   0.0000       0.365396         9.9429 
  31   0.0000       0.365398         9.9430 
  32   0.0000       0.367705        10.0058 
  33   0.0000       0.381954        10.3935 
  34   0.0000       0.381955        10.3935 
  35   0.0000       0.405016        11.0210 
  36   0.0000       0.405017        11.0211 
  37   0.0000       0.412344        11.2204 
  38   0.0000       0.446086        12.1386 
  39   0.0000       0.487497        13.2655 
  40   0.0000       0.487501        13.2656 
  41   0.0000       0.538390        14.6503 
  42   0.0000       0.581223        15.8159 
  43   0.0000       0.626968        17.0607 
  44   0.0000       0.626975        17.0609 
  45   0.0000       0.704296        19.1649 
  46   0.0000       0.704300        19.1650 
  47   0.0000       0.708282        19.2733 
  48   0.0000       0.737308        20.0632 
  49   0.0000       0.744885        20.2694 
  50   0.0000       0.744895        20.2696 
  51   0.0000       0.771737        21.0000 
  52   0.0000       0.796237        21.6667 
  53   0.0000       0.796239        21.6668 
  54   0.0000       0.868042        23.6206 
  55   0.0000       0.906246        24.6602 
  56   0.0000       0.906248        24.6603 
  57   0.0000       0.944920        25.7126 
  58   0.0000       0.982653        26.7394 
  59   0.0000       0.982663        26.7396 
  60   0.0000       1.083585        29.4859 
  61   0.0000       1.083586        29.4859 
  62   0.0000       1.122293        30.5391 
  63   0.0000       1.161601        31.6088 
  64   0.0000       1.161619        31.6093 
  65   0.0000       1.183980        32.2177 
  66   0.0000       1.252187        34.0737 
  67   0.0000       1.263503        34.3817 
  68   0.0000       1.263505        34.3817 
  69   0.0000       1.307139        35.5691 
  70   0.0000       1.307159        35.5696 
  71   0.0000       1.352591        36.8059 
  72   0.0000       1.468700        39.9654 
  73   0.0000       1.468725        39.9660 
  74   0.0000       1.703423        46.3525 
  75   0.0000       2.131384        57.9979 
  76   0.0000       2.174785        59.1789 
  77   0.0000       2.174820        59.1799 
  78   0.0000       2.205036        60.0021 
  79   0.0000       2.221738        60.4566 
  80   0.0000       2.222517        60.4778 
  81   0.0000       2.222548        60.4786 
  82   0.0000       2.337625        63.6100 
  83   0.0000       2.337650        63.6107 
  84   0.0000       2.458545        66.9004 
  85   0.0000       2.471232        67.2456 
  86   0.0000       2.471233        67.2457 
  87   0.0000       2.624635        71.4199 
  88   0.0000       2.624645        71.4202 
  89   0.0000       2.892247        78.7021 
  90   0.0000       2.932469        79.7965 
  91   0.0000       2.932502        79.7974 
  92   0.0000       2.974875        80.9505 
  93   0.0000       3.053103        83.0792 
  94   0.0000       3.190615        86.8210 
  95   0.0000       3.190651        86.8220 
  96   0.0000       3.243813        88.2687 
  97   0.0000       3.319026        90.3153 
  98   0.0000       3.319075        90.3166 
  99   0.0000       3.448582        93.8407 
 100   0.0000       3.448585        93.8408 
 101   0.0000       3.451387        93.9170 
 102   0.0000       3.659742        99.5866 
 103   0.0000       3.659774        99.5875 
 104   0.0000       3.708787       100.9212 
 105   0.0000       3.819882       103.9443 
 106   0.0000       3.959510       107.7437 
 107   0.0000       3.974651       108.1558 
 108   0.0000       3.974695       108.1569 
 109   0.0000       4.119263       112.0908 
 110   0.0000       4.119269       112.0910 
 111   0.0000       4.234705       115.2322 
 112   0.0000       4.335107       117.9642 
 113   0.0000       4.335159       117.9657 
 114   0.0000       5.409164       147.1908 
 115   0.0000       5.409196       147.1917 
 116   0.0000       5.554403       151.1430 
 117   0.0000       6.919070       188.2775 
 118   0.0000       6.919090       188.2780 
 119   0.0000       6.924537       188.4262 
 120   0.0000       6.934082       188.6860 
 121   0.0000       6.934091       188.6862 
 122   0.0000       6.939717       188.8393 
 123   0.0000       6.945481       188.9961 
 124   0.0000       6.945509       188.9969 
 125   0.0000       6.964774       189.5211 
 126   0.0000       7.065010       192.2487 
 127   0.0000       7.065080       192.2506 
 128   0.0000       7.178907       195.3480 
 129   0.0000       7.255797       197.4403 
 130   0.0000       7.255801       197.4404 
 131   0.0000       7.275031       197.9637 
 132   0.0000       7.464055       203.1073 
 133   0.0000       7.510826       204.3800 
 134   0.0000       7.629783       207.6170 
 135   0.0000       7.629814       207.6178 
 136   0.0000       7.793541       212.0730 
 137   0.0000       7.793607       212.0748 
 138   0.0000       8.535208       232.2548 
 139   0.0000       8.535220       232.2552 
 140   0.0000       8.588537       233.7060 
 141   0.0000       8.601921       234.0702 
 142   0.0000       8.628685       234.7985 
 143   0.0000       8.628730       234.7997 
 144   0.0000       8.852786       240.8966 
 145   0.0000       8.862109       241.1502 
 146   0.0000       8.862129       241.1508 
 147   0.0000       9.069760       246.8007 
 148   0.0000       9.114577       248.0202 
 149   0.0000       9.114625       248.0216 
 150   0.0000       9.278478       252.4802 
 151   0.0000       9.403067       255.8705 
 152   0.0000       9.403095       255.8712 
 153   0.0000      22.675851       617.0413 
 154   0.0000      57.393128      1561.7464 
 155   0.0000      57.393151      1561.7470 
 156   0.0000      57.498886      1564.6242 

                    ********************************
                    * MULLIKEN POPULATION ANALYSIS *
                    ********************************

--------------------------------------------
MULLIKEN ATOMIC CHARGES AND SPIN POPULATIONS
--------------------------------------------
   0 C :    0.573272    0.777189
   1 F :   -0.190992    0.074315
   2 F :   -0.191140    0.074247
   3 F :   -0.191140    0.074248
Sum of atomic charges         :   -0.0000000
Sum of atomic spin populations:    1.0000000

-----------------------------------------------------
MULLIKEN REDUCED ORBITAL CHARGES AND SPIN POPULATIONS
-----------------------------------------------------
CHARGE
  0 C s       :     3.181988  s :     3.181988
      pz      :     0.817537  p :     1.913944
      px      :     0.548205
      py      :     0.548201
      dz2     :     0.062986  d :     0.286610
      dxz     :     0.045799
      dyz     :     0.045801
      dx2y2   :     0.066008
      dxy     :     0.066016
      f0      :     0.001600  f :     0.044186
      f+1     :     0.007135
      f-1     :     0.007134
      f+2     :     0.007812
      f-2     :     0.007818
      f+3     :     0.003696
      f-3     :     0.008990
  1 F s       :     3.953540  s :     3.953540
      pz      :     1.705331  p :     5.228395
      px      :     1.593178
      py      :     1.929887
      dz2     :     0.000703  d :     0.008191
      dxz     :     0.005226
      dyz     :     0.001935
      dx2y2   :     0.003979
      dxy     :    -0.003654
      f0      :     0.000085  f :     0.000865
      f+1     :     0.000189
      f-1     :     0.000008
      f+2     :     0.000229
      f-2     :     0.000084
      f+3     :     0.000141
      f-3     :     0.000131
  2 F s       :     3.953614  s :     3.953614
      pz      :     1.705311  p :     5.228486
      px      :     1.845747
      py      :     1.677428
      dz2     :     0.000701  d :     0.008174
      dxz     :     0.002756
      dyz     :     0.004400
      dx2y2   :    -0.001746
      dxy     :     0.002063
      f0      :     0.000085  f :     0.000866
      f+1     :     0.000053
      f-1     :     0.000143
      f+2     :     0.000120
      f-2     :     0.000192
      f+3     :     0.000141
      f-3     :     0.000131
  3 F s       :     3.953613  s :     3.953613
      pz      :     1.705311  p :     5.228487
      px      :     1.845748
      py      :     1.677428
      dz2     :     0.000701  d :     0.008174
      dxz     :     0.002756
      dyz     :     0.004400
      dx2y2   :    -0.001746
      dxy     :     0.002063
      f0      :     0.000085  f :     0.000866
      f+1     :     0.000053
      f-1     :     0.000143
      f+2     :     0.000120
      f-2     :     0.000192
      f+3     :     0.000141
      f-3     :     0.000131

SPIN
  0 C s       :     0.279606  s :     0.279606
      pz      :     0.462290  p :     0.489078
      px      :     0.013378
      py      :     0.013409
      dz2     :     0.013848  d :     0.009216
      dxz     :    -0.001408
      dyz     :    -0.001407
      dx2y2   :    -0.000910
      dxy     :    -0.000907
      f0      :     0.000006  f :    -0.000711
      f+1     :    -0.000293
      f-1     :    -0.000292
      f+2     :    -0.000217
      f-2     :    -0.000219
      f+3     :     0.000265
      f-3     :     0.000038
  1 F s       :     0.003081  s :     0.003081
      pz      :     0.074004  p :     0.069692
      px      :    -0.003069
      py      :    -0.001243
      dz2     :    -0.000210  d :     0.001514
      dxz     :     0.001064
      dyz     :    -0.000019
      dx2y2   :     0.000791
      dxy     :    -0.000112
      f0      :     0.000004  f :     0.000028
      f+1     :     0.000012
      f-1     :     0.000001
      f+2     :     0.000003
      f-2     :     0.000001
      f+3     :     0.000007
      f-3     :    -0.000001
  2 F s       :     0.003066  s :     0.003066
      pz      :     0.073957  p :     0.069637
      px      :    -0.001700
      py      :    -0.002621
      dz2     :    -0.000210  d :     0.001517
      dxz     :     0.000252
      dyz     :     0.000792
      dx2y2   :     0.000114
      dxy     :     0.000568
      f0      :     0.000004  f :     0.000028
      f+1     :     0.000004
      f-1     :     0.000009
      f+2     :     0.000001
      f-2     :     0.000003
      f+3     :     0.000007
      f-3     :    -0.000001
  3 F s       :     0.003066  s :     0.003066
      pz      :     0.073957  p :     0.069637
      px      :    -0.001700
      py      :    -0.002621
      dz2     :    -0.000210  d :     0.001517
      dxz     :     0.000252
      dyz     :     0.000792
      dx2y2   :     0.000114
      dxy     :     0.000568
      f0      :     0.000004  f :     0.000028
      f+1     :     0.000004
      f-1     :     0.000009
      f+2     :     0.000001
      f-2     :     0.000003
      f+3     :     0.000007
      f-3     :    -0.000001


                     *******************************
                     * LOEWDIN POPULATION ANALYSIS *
                     *******************************

-------------------------------------------
LOEWDIN ATOMIC CHARGES AND SPIN POPULATIONS
-------------------------------------------
   0 C :   -0.323312    0.627344
   1 F :    0.107775    0.124234
   2 F :    0.107769    0.124211
   3 F :    0.107769    0.124211

----------------------------------------------------
LOEWDIN REDUCED ORBITAL CHARGES AND SPIN POPULATIONS
----------------------------------------------------
CHARGE
  0 C s       :     2.714177  s :     2.714177
      pz      :     0.803311  p :     2.155290
      px      :     0.675979
      py      :     0.675999
      dz2     :     0.171647  d :     1.169370
      dxz     :     0.217285
      dyz     :     0.217290
      dx2y2   :     0.281572
      dxy     :     0.281575
      f0      :     0.016832  f :     0.284476
      f+1     :     0.035599
      f-1     :     0.035598
      f+2     :     0.057623
      f-2     :     0.057628
      f+3     :     0.032683
      f-3     :     0.048512
  1 F s       :     3.548453  s :     3.548453
      pz      :     1.656545  p :     5.094661
      px      :     1.648752
      py      :     1.789364
      dz2     :     0.043464  d :     0.247048
      dxz     :     0.067925
      dyz     :     0.013329
      dx2y2   :     0.043838
      dxy     :     0.078492
      f0      :     0.000174  f :     0.002063
      f+1     :     0.000543
      f-1     :     0.000004
      f+2     :     0.000492
      f-2     :     0.000197
      f+3     :     0.000294
      f-3     :     0.000359
  2 F s       :     3.548454  s :     3.548454
      pz      :     1.656555  p :     5.094672
      px      :     1.754212
      py      :     1.683905
      dz2     :     0.043463  d :     0.247042
      dxz     :     0.026977
      dyz     :     0.054275
      dx2y2   :     0.069827
      dxy     :     0.052500
      f0      :     0.000174  f :     0.002063
      f+1     :     0.000139
      f-1     :     0.000408
      f+2     :     0.000271
      f-2     :     0.000418
      f+3     :     0.000294
      f-3     :     0.000359
  3 F s       :     3.548454  s :     3.548454
      pz      :     1.656555  p :     5.094672
      px      :     1.754212
      py      :     1.683904
      dz2     :     0.043463  d :     0.247042
      dxz     :     0.026977
      dyz     :     0.054275
      dx2y2   :     0.069827
      dxy     :     0.052500
      f0      :     0.000174  f :     0.002063
      f+1     :     0.000139
      f-1     :     0.000408
      f+2     :     0.000271
      f-2     :     0.000418
      f+3     :     0.000294
      f-3     :     0.000359

SPIN
  0 C s       :     0.163211  s :     0.163211
      pz      :     0.396434  p :     0.408433
      px      :     0.005993
      py      :     0.006006
      dz2     :     0.055949  d :     0.047444
      dxz     :    -0.003598
      dyz     :    -0.003599
      dx2y2   :    -0.000655
      dxy     :    -0.000653
      f0      :     0.002185  f :     0.008256
      f+1     :    -0.000227
      f-1     :    -0.000227
      f+2     :    -0.000174
      f-2     :    -0.000176
      f+3     :     0.006872
      f-3     :     0.000003
  1 F s       :     0.014652  s :     0.014652
      pz      :     0.076827  p :     0.081915
      px      :     0.005706
      py      :    -0.000618
      dz2     :     0.011563  d :     0.027362
      dxz     :     0.015013
      dyz     :    -0.000221
      dx2y2   :     0.001017
      dxy     :    -0.000010
      f0      :     0.000007  f :     0.000305
      f+1     :     0.000243
      f-1     :     0.000001
      f+2     :     0.000021
      f-2     :     0.000001
      f+3     :     0.000031
      f-3     :     0.000002
  2 F s       :     0.014652  s :     0.014652
      pz      :     0.076797  p :     0.081891
      px      :     0.000964
      py      :     0.004131
      dz2     :     0.011563  d :     0.027363
      dxz     :     0.003588
      dyz     :     0.011205
      dx2y2   :     0.000247
      dxy     :     0.000760
      f0      :     0.000007  f :     0.000305
      f+1     :     0.000061
      f-1     :     0.000182
      f+2     :     0.000006
      f-2     :     0.000016
      f+3     :     0.000030
      f-3     :     0.000002
  3 F s       :     0.014652  s :     0.014652
      pz      :     0.076797  p :     0.081892
      px      :     0.000964
      py      :     0.004131
      dz2     :     0.011563  d :     0.027363
      dxz     :     0.003588
      dyz     :     0.011205
      dx2y2   :     0.000247
      dxy     :     0.000760
      f0      :     0.000007  f :     0.000305
      f+1     :     0.000061
      f-1     :     0.000182
      f+2     :     0.000006
      f-2     :     0.000016
      f+3     :     0.000030
      f-3     :     0.000002


                      *****************************
                      * MAYER POPULATION ANALYSIS *
                      *****************************

  NA   - Mulliken gross atomic population
  ZA   - Total nuclear charge
  QA   - Mulliken gross atomic charge
  VA   - Mayer's total valence
  BVA  - Mayer's bonded valence
  FA   - Mayer's free valence

  ATOM       NA         ZA         QA         VA         BVA        FA
  0 C      5.4267     6.0000     0.5733     3.7948     3.1830     0.6119
  1 F      9.1910     9.0000    -0.1910     1.0125     1.0081     0.0044
  2 F      9.1911     9.0000    -0.1911     1.0121     1.0077     0.0044
  3 F      9.1911     9.0000    -0.1911     1.0121     1.0077     0.0044

  Mayer bond orders larger than 0.100000
B(  0-C ,  1-F ) :   1.0612 B(  0-C ,  2-F ) :   1.0609 B(  0-C ,  3-F ) :   1.0609 


-------
TIMINGS
-------

Total SCF time: 0 days 0 hours 0 min 11 sec 

Total time                  ....      11.140 sec
Sum of individual times     ....      10.338 sec  ( 92.8%)

Fock matrix formation       ....       8.702 sec  ( 78.1%)
  Split-RI-J                ....       1.139 sec  ( 13.1% of F)
  Chain of spheres X        ....       2.931 sec  ( 33.7% of F)
  XC integration            ....       1.902 sec  ( 21.9% of F)
    Basis function eval.    ....       0.113 sec  (  5.9% of XC)
    Density eval.           ....       0.145 sec  (  7.6% of XC)
    XC-Functional eval.     ....       0.062 sec  (  3.3% of XC)
    XC-Potential eval.      ....       0.288 sec  ( 15.1% of XC)
Diagonalization             ....       0.334 sec  (  3.0%)
Density matrix formation    ....       0.017 sec  (  0.2%)
Population analysis         ....       0.130 sec  (  1.2%)
Initial guess               ....       0.128 sec  (  1.1%)
Orbital Transformation      ....       0.000 sec  (  0.0%)
Orbital Orthonormalization  ....       0.000 sec  (  0.0%)
DIIS solution               ....       0.436 sec  (  3.9%)
Grid generation             ....       0.592 sec  (  5.3%)

Maximum memory used throughout the entire SCF-calculation: 63.2 MB


-------------------------------------------------------------------------------
                          DFT DISPERSION CORRECTION                            
                                                                               
                              DFTD3 V3.1  Rev 1                                
                              USING zero damping                               
-------------------------------------------------------------------------------
The omegaB97X-D3 functional is recognized. Fit by Chai et al.
Active option DFTDOPT                   ...         3   

molecular C6(AA) [au] = 165.491626 


            DFT-D V3
 parameters
 s6 scaling factor         :     1.0000 
 rs6 scaling factor        :     1.2810 
 s8 scaling factor         :     1.0000 
 rs8 scaling factor        :     1.0940 
 Damping factor alpha6     :    14.0000 
 Damping factor alpha8     :    16.0000 
 ad hoc parameters k1-k3   :    16.0000     1.3333    -4.0000 

 Edisp/kcal,au: -0.025074391734  -0.000039958582 
 E6   /kcal   :  -0.003175690 
 E8   /kcal   :  -0.021898702 
 % E8         :  87.334926411 

-------------------------   ----------------
Dispersion correction           -0.000039959
-------------------------   ----------------


-------------------------   --------------------
FINAL SINGLE POINT ENERGY      -337.579198393051
-------------------------   --------------------



           ************************************************************
           *        Program running with 18 parallel MPI-processes    *
           *              working on a common directory               *
           ************************************************************
------------------------------------------------------------------------------
                         ORCA SCF GRADIENT CALCULATION
------------------------------------------------------------------------------

 ... reading COSX grid (gridx3)
Gradient of the Kohn-Sham DFT energy:
Kohn-Sham wavefunction type      ... UKS
Hartree-Fock exchange scaling    ...    0.196
Number of operators              ...    2
Number of atoms                  ...    4
Basis set dimensions             ...  157
Integral neglect threshold       ... 2.5e-11
Integral primitive cutoff        ... 2.5e-12
SHARK Integral package           ... ON

Nuc. rep. gradient       (SHARK) ... done (  0.0 sec)
HCore & Overlap gradient (SHARK) ... done (  0.0 sec)
RI-J gradient            (SHARK) ... done (  0.2 sec)
COSX-gradient                    ... done (  0.4 sec)
Exchange-correlation gradient    ... done
Dispersion correction            ... done

------------------
CARTESIAN GRADIENT
------------------

WARNING: THERE ARE 3 CONSTRAINED CARTESIAN COORDINATES
   1   C   :   -0.000270189   -0.000000013    0.129223286
   2   F   :   -0.079284656   -0.000000004   -0.043205971
   3   F   :    0.039872596   -0.068665512   -0.043074066
   4   F   :    0.039872640    0.068665444   -0.043074045

Difference to translation invariance:
           :    0.0001903906   -0.0000000848   -0.0001307949

Difference to rotation invariance:
           :   -0.0000001274   -0.0002834487    0.0000001464

Norm of the cartesian gradient     ...    0.2029084492
RMS gradient                       ...    0.0585746239
MAX gradient                       ...    0.1292232861

-------
TIMINGS
-------

Total SCF gradient time            ...        1.170 sec

One electron gradient       ....       0.013 sec  (  1.1%)
RI-J Coulomb gradient       ....       0.164 sec  ( 14.0%)
COSX gradient               ....       0.440 sec  ( 37.6%)
XC gradient                 ....       0.177 sec  ( 15.1%)

Maximum memory used throughout the entire SCFGRAD-calculation: 37.3 MB
------------------------------------------------------------------------------
                         ORCA GEOMETRY RELAXATION STEP
------------------------------------------------------------------------------

Reading the OPT-File                    .... done
Getting information on internals        .... done
Copying old internal coords+grads       .... done
Making the new internal coordinates     .... (new redundants).... done
Validating the new internal coordinates .... (new redundants).... done
Calculating the B-matrix                .... done
Calculating the G,G- and P matrices     .... done
Transforming gradient to internals      .... done
Projecting the internal gradient        .... done
Number of atoms                         ....   4
Number of internal coordinates          ....   7
Current Energy                          ....  -337.579198393 Eh
Current gradient norm                   ....     0.202908449 Eh/bohr
Maximum allowed component of the step   ....  0.300
Current trust radius                    ....  0.300
Evaluating the initial hessian          ....  (Almloef) done
Projecting the Hessian                  .... done
Forming the augmented Hessian           .... done
Diagonalizing the augmented Hessian     .... done
Last element of RFO vector              ....  0.993054614
Lowest eigenvalues of augmented Hessian:
 -0.009750639  0.684895726  0.684895726  0.694646365 1000.000000000
Length of the computed step             ....  0.118477168
The final length of the internal step   ....  0.118477168
Converting the step to cartesian space:
 Initial RMS(Int)=    0.0447801603
Transforming coordinates:
 Iter   0:  RMS(Cart)=    0.0308811062 RMS(Int)=    0.0447801605
 Iter   1:  RMS(Cart)=    0.0000000004 RMS(Int)=    0.0000000006
Imposing constraints:
 Iter   0:  RMS(Cart)=    0.0000000003 RMS(Int)=    0.0000000003
CONVERGED
done
Storing new coordinates                 .... done

                                .--------------------.
          ----------------------|Geometry convergence|-------------------------
          Item                value                   Tolerance       Converged
          ---------------------------------------------------------------------
          RMS gradient        0.0311063756            0.0001000000      NO
          MAX gradient        0.0475562696            0.0003000000      NO
          RMS step            0.0447801603            0.0020000000      NO
          MAX step            0.0684611221            0.0040000000      NO
          ........................................................
          Max(Bonds)      0.0362      Max(Angles)    0.00
          Max(Dihed)        0.00      Max(Improp)    0.00
          ---------------------------------------------------------------------

The optimization has not yet converged - more geometry cycles are needed


    ---------------------------------------------------------------------------
                         Redundant Internal Coordinates
                            (Angstroem and degrees)

        Definition                    Value    dE/dq     Step     New-Value
    ----------------------------------------------------------------------------
     1. B(F   1,C   0)                1.3150 -0.047435  0.0361    1.3511   
     2. B(F   2,C   0)                1.3150 -0.047556  0.0362    1.3512   
     3. B(F   3,C   0)                1.3150 -0.047556  0.0362    1.3512   
     4. A(F   2,C   0,F   3)           97.50 -0.133331    0.00     97.50 C 
     5. A(F   1,C   0,F   2)           97.50 -0.061913    0.00     97.50 C 
     6. A(F   1,C   0,F   3)           97.50 -0.061913    0.00     97.50 C 
     7. I(F   1,F   3,F   2,C   0)     78.58  0.110329   -0.00     78.58   
    ----------------------------------------------------------------------------

         *************************************************************
         *                GEOMETRY OPTIMIZATION CYCLE   2            *
         *************************************************************
---------------------------------
CARTESIAN COORDINATES (ANGSTROEM)
---------------------------------
  C      0.000029    0.000000    0.013474
  F      1.173005    0.000000   -0.657118
  F     -0.586517    1.015907   -0.657134
  F     -0.586517   -1.015907   -0.657134

----------------------------
CARTESIAN COORDINATES (A.U.)
----------------------------
  NO LB      ZA    FRAG     MASS         X           Y           Z
   0 C     6.0000    0    12.011    0.000054    0.000000    0.025461
   1 F     9.0000    0    18.998    2.216659    0.000000   -1.241772
   2 F     9.0000    0    18.998   -1.108356    1.919786   -1.241803
   3 F     9.0000    0    18.998   -1.108356   -1.919786   -1.241803

--------------------------------
INTERNAL COORDINATES (ANGSTROEM)
--------------------------------
 C      0   0   0     0.000000000000     0.00000000     0.00000000
 F      1   0   0     1.351135439094     0.00000000     0.00000000
 F      1   2   0     1.351228063961    97.49999998     0.00000000
 F      1   2   3     1.351228065436    97.49999998    98.63393302

---------------------------
INTERNAL COORDINATES (A.U.)
---------------------------
 C      0   0   0     0.000000000000     0.00000000     0.00000000
 F      1   0   0     2.553275949724     0.00000000     0.00000000
 F      1   2   0     2.553450985354    97.49999998     0.00000000
 F      1   2   3     2.553450988142    97.49999998    98.63393302



           ************************************************************
           *        Program running with 18 parallel MPI-processes    *
           *              working on a common directory               *
           ************************************************************
------------------------------------------------------------------------------
                   ___                                                        
                  /   \      - P O W E R E D   B Y -                         
                 /     \                                                     
                 |  |  |   _    _      __       _____    __    __             
                 |  |  |  | |  | |    /  \     |  _  \  |  |  /  |          
                  \  \/   | |  | |   /    \    | | | |  |  | /  /          
                 / \  \   | |__| |  /  /\  \   | |_| |  |  |/  /          
                |  |  |   |  __  | /  /__\  \  |    /   |      \           
                |  |  |   | |  | | |   __   |  |    \   |  |\   \          
                \     /   | |  | | |  |  |  |  | |\  \  |  | \   \       
                 \___/    |_|  |_| |__|  |__|  |_| \__\ |__|  \__/        
                                                                              
                      - O R C A' S   B I G   F R I E N D -                    
                                      &                                       
                       - I N T E G R A L  F E E D E R -                       
                                                                              
 v1 FN, 2020, v2 2021                                                         
------------------------------------------------------------------------------


Reading SHARK input file /beegfs/scratch/ispackman/PFAS_EPR_calcs/benchmark/JChemEd_CF3_radical/CF3_radical_97.5_degrees_IN-PROGRESS/CF3_radical_97.5_degrees.SHARKINP.tmp ... ok
----------------------
SHARK INTEGRAL PACKAGE
----------------------

Number of atoms                             ...      4
Number of basis functions                   ...    157
Number of shells                            ...     55
Maximum angular momentum                    ...      3
Integral batch strategy                     ... SHARK/LIBINT Hybrid
RI-J (if used) integral strategy            ... SPLIT-RIJ (Revised 2003 algorithm where possible)
Printlevel                                  ...      1
Contraction scheme used                     ... SEGMENTED contraction
Coulomb Range Separation                    ... NOT USED
Exchange Range Separation                   ... Long Range
   Mu parameter                             ...  0.250000
   Scaling (regular/separated)              ...  0.195728  0.804272
Finite Nucleus Model                        ... NOT USED
Auxiliary Coulomb fitting basis             ... AVAILABLE
   # of basis functions in Aux-J            ...    196
   # of shells in Aux-J                     ...     60
   Maximum angular momentum in Aux-J        ...      4
Auxiliary J/K fitting basis                 ... NOT available
Auxiliary Correlation fitting basis         ... NOT available
Auxiliary 'external' fitting basis          ... NOT available
Integral threshold                          ...     2.500000e-11
Primitive cut-off                           ...     2.500000e-12
Primitive pair pre-selection threshold      ...     2.500000e-12

Calculating pre-screening integrals         ... done (  0.0 sec) Dimension = 55
Organizing shell pair data                  ... done (  0.0 sec)
Shell pair information
Total number of shell pairs                 ...      1540
Shell pairs after pre-screening             ...      1510
Total number of primitive shell pairs       ...      4274
Primitive shell pairs kept                  ...      3575
          la=0 lb=0:    282 shell pairs
          la=1 lb=0:    360 shell pairs
          la=1 lb=1:    120 shell pairs
          la=2 lb=0:    276 shell pairs
          la=2 lb=1:    180 shell pairs
          la=2 lb=2:     78 shell pairs
          la=3 lb=0:     96 shell pairs
          la=3 lb=1:     60 shell pairs
          la=3 lb=2:     48 shell pairs
          la=3 lb=3:     10 shell pairs

Calculating one electron integrals          ... done (  0.0 sec)
Calculating RI/J V-Matrix + Cholesky decomp.... done (  0.0 sec)
Calculating Nuclear repulsion               ... done (  0.0 sec) ENN=    126.734748519857 Eh

SHARK setup successfully completed in   0.3 seconds

Maximum memory used throughout the entire GTOINT-calculation: 15.2 MB


           ************************************************************
           *        Program running with 18 parallel MPI-processes    *
           *              working on a common directory               *
           ************************************************************

Diagonalization of the overlap matrix:
Smallest eigenvalue                        ... 4.018e-04
Time for diagonalization                   ...    0.008 sec
Threshold for overlap eigenvalues          ... 1.000e-08
Number of eigenvalues below threshold      ... 0
Time for construction of square roots      ...    0.042 sec
Total time needed                          ...    0.051 sec

-------------------
DFT GRID GENERATION
-------------------

General Integration Accuracy     IntAcc      ... 4.388
Radial Grid Type                 RadialGrid  ... OptM3 with GC (2021)
Angular Grid (max. ang.)         AngularGrid ... 4 (Lebedev-302)
Angular grid pruning method      GridPruning ... 4 (adaptive)
Weight generation scheme         WeightScheme... Becke
Basis function cutoff            BFCut       ... 1.0000e-11
Integration weight cutoff        WCut        ... 1.0000e-14
Angular grids for H and He will be reduced by one unit
Partially contracted basis set               ... off
Rotationally invariant grid construction     ... off

Total number of grid points                  ...    25783
Total number of batches                      ...      406
Average number of points per batch           ...       63
Average number of grid points per atom       ...     6446
Time for grid setup =    0.150 sec

--------------------
COSX GRID GENERATION
--------------------

GRIDX 1
-------
General Integration Accuracy     IntAcc      ... 3.816
Radial Grid Type                 RadialGrid  ... OptM3 with GC (2021)
Angular Grid (max. ang.)         AngularGrid ... 1 (Lebedev-50)
Angular grid pruning method      GridPruning ... 4 (adaptive)
Weight generation scheme         WeightScheme... Becke
Basis function cutoff            BFCut       ... 1.0000e-11
Integration weight cutoff        WCut        ... 1.0000e-14
Angular grids for H and He will be reduced by one unit
Partially contracted basis set               ... on
Rotationally invariant grid construction     ... off

Total number of grid points                  ...     3274
Total number of batches                      ...       53
Average number of points per batch           ...       61
Average number of grid points per atom       ...      818
UseSFitting                                  ... on

GRIDX 2
-------
General Integration Accuracy     IntAcc      ... 4.020
Radial Grid Type                 RadialGrid  ... OptM3 with GC (2021)
Angular Grid (max. ang.)         AngularGrid ... 2 (Lebedev-110)
Angular grid pruning method      GridPruning ... 4 (adaptive)
Weight generation scheme         WeightScheme... Becke
Basis function cutoff            BFCut       ... 1.0000e-11
Integration weight cutoff        WCut        ... 1.0000e-14
Angular grids for H and He will be reduced by one unit
Partially contracted basis set               ... on
Rotationally invariant grid construction     ... off

Total number of grid points                  ...     9137
Total number of batches                      ...      146
Average number of points per batch           ...       62
Average number of grid points per atom       ...     2284
UseSFitting                                  ... on

GRIDX 3
-------
General Integration Accuracy     IntAcc      ... 4.338
Radial Grid Type                 RadialGrid  ... OptM3 with GC (2021)
Angular Grid (max. ang.)         AngularGrid ... 3 (Lebedev-194)
Angular grid pruning method      GridPruning ... 4 (adaptive)
Weight generation scheme         WeightScheme... Becke
Basis function cutoff            BFCut       ... 1.0000e-11
Integration weight cutoff        WCut        ... 1.0000e-14
Angular grids for H and He will be reduced by one unit
Partially contracted basis set               ... on
Rotationally invariant grid construction     ... off

Total number of grid points                  ...    19692
Total number of batches                      ...      309
Average number of points per batch           ...       63
Average number of grid points per atom       ...     4923
UseSFitting                                  ... on

Time for X-Grid setup             =    0.345 sec

--------------
SCF ITERATIONS
[...]
  VA   - Mayer's total valence
  BVA  - Mayer's bonded valence
  FA   - Mayer's free valence

  ATOM       NA         ZA         QA         VA         BVA        FA
  0 C      5.4654     6.0000     0.5346     3.7767     3.1792     0.5976
  1 F      9.1780     9.0000    -0.1780     1.0272     1.0217     0.0055
  2 F      9.1783     9.0000    -0.1783     1.0268     1.0213     0.0055
  3 F      9.1783     9.0000    -0.1783     1.0268     1.0213     0.0055

  Mayer bond orders larger than 0.100000
B(  0-C ,  1-F ) :   1.0600 B(  0-C ,  2-F ) :   1.0596 B(  0-C ,  3-F ) :   1.0596 


-------
TIMINGS
-------

Total SCF time: 0 days 0 hours 0 min 4 sec 

Total time                  ....       4.540 sec
Sum of individual times     ....       3.927 sec  ( 86.5%)

Fock matrix formation       ....       3.087 sec  ( 68.0%)
  Split-RI-J                ....       0.494 sec  ( 16.0% of F)
  Chain of spheres X        ....       1.358 sec  ( 44.0% of F)
  XC integration            ....       0.548 sec  ( 17.7% of F)
    Basis function eval.    ....       0.035 sec  (  6.4% of XC)
    Density eval.           ....       0.044 sec  (  8.1% of XC)
    XC-Functional eval.     ....       0.019 sec  (  3.5% of XC)
    XC-Potential eval.      ....       0.059 sec  ( 10.7% of XC)
Diagonalization             ....       0.098 sec  (  2.2%)
Density matrix formation    ....       0.007 sec  (  0.2%)
Population analysis         ....       0.174 sec  (  3.8%)
Initial guess               ....       0.018 sec  (  0.4%)
Orbital Transformation      ....       0.000 sec  (  0.0%)
Orbital Orthonormalization  ....       0.008 sec  (  0.2%)
DIIS solution               ....       0.047 sec  (  1.0%)
Grid generation             ....       0.497 sec  ( 10.9%)

Maximum memory used throughout the entire SCF-calculation: 63.2 MB


-------------------------------------------------------------------------------
                          DFT DISPERSION CORRECTION                            
                                                                               
                              DFTD3 V3.1  Rev 1                                
                              USING zero damping                               
-------------------------------------------------------------------------------
The omegaB97X-D3 functional is recognized. Fit by Chai et al.
Active option DFTDOPT                   ...         3   

molecular C6(AA) [au] = 165.602160 


            DFT-D V3
 parameters
 s6 scaling factor         :     1.0000 
 rs6 scaling factor        :     1.2810 
 s8 scaling factor         :     1.0000 
 rs8 scaling factor        :     1.0940 
 Damping factor alpha6     :    14.0000 
 Damping factor alpha8     :    16.0000 
 ad hoc parameters k1-k3   :    16.0000     1.3333    -4.0000 

 Edisp/kcal,au: -0.032232841227  -0.000051366297 
 E6   /kcal   :  -0.004089126 
 E8   /kcal   :  -0.028143715 
 % E8         :  87.313789993 

-------------------------   ----------------
Dispersion correction           -0.000051366
-------------------------   ----------------


-------------------------   --------------------
FINAL SINGLE POINT ENERGY      -337.584526363234
-------------------------   --------------------

                                *** OPTIMIZATION RUN DONE ***

                            ***************************************
                            *     ORCA property calculations      *
                            ***************************************

                                    ---------------------
                                    Active property flags
                                    ---------------------
   (+) Dipole Moment


------------------------------------------------------------------------------
                       ORCA ELECTRIC PROPERTIES CALCULATION
------------------------------------------------------------------------------

Dipole Moment Calculation                       ... on
Quadrupole Moment Calculation                   ... off
Polarizability Calculation                      ... off
GBWName                                         ... /beegfs/scratch/ispackman/PFAS_EPR_calcs/benchmark/JChemEd_CF3_radical/CF3_radical_97.5_degrees_IN-PROGRESS/CF3_radical_97.5_degrees.gbw
Electron density                                ... /beegfs/scratch/ispackman/PFAS_EPR_calcs/benchmark/JChemEd_CF3_radical/CF3_radical_97.5_degrees_IN-PROGRESS/CF3_radical_97.5_degrees.scfp
The origin for moment calculation is the CENTER OF MASS  = (-0.000009,  0.000000 -1.021638)

-------------
DIPOLE MOMENT
-------------
                                X             Y             Z
Electronic contribution:      0.00026      -0.00000       0.15663
Nuclear contribution   :      0.00003      -0.00000       0.32587
                        -----------------------------------------
Total Dipole Moment    :      0.00029      -0.00000       0.48251
                        -----------------------------------------
Magnitude (a.u.)       :      0.48251
Magnitude (Debye)      :      1.22643



--------------------
Rotational spectrum 
--------------------
 
Rotational constants in cm-1:     0.382645     0.382591     0.213074 
Rotational constants in MHz : 11471.400040 11469.800642  6387.811051 

 Dipole components along the rotational axes: 
x,y,z [a.u.] :    -0.000001    -0.000302     0.482506 
x,y,z [Debye]:    -0.000001    -0.000767     1.226433 

 


           ************************************************************
           *        Program running with 18 parallel MPI-processes    *
           *              working on a common directory               *
           ************************************************************

-------------------------------------------------------------------------------
                               ORCA SCF HESSIAN
-------------------------------------------------------------------------------

                   --------- SHARK INITIALIZATION DONE ---------

Hessian of the Kohn-Sham DFT energy:
Kohn-Sham wavefunction type                      ... UKS
Hartree-Fock exchange scaling                    ...    0.196
Number of operators                              ...    2
Number of atoms                                  ...    4
Basis set dimensions                             ...  157
Integral neglect threshold                       ... 2.5e-11
Integral primitive cutoff                        ... 2.5e-12

Setting up DFT Hessian calculations              ... 

HESS GRID
---------

General Integration Accuracy     IntAcc      ... 4.629
Radial Grid Type                 RadialGrid  ... OptM3 with GC (2021)
Angular Grid (max. ang.)         AngularGrid ... 5 (Lebedev-434)
Angular grid pruning method      GridPruning ... 4 (adaptive)
Weight generation scheme         WeightScheme... Becke
Basis function cutoff            BFCut       ... 1.0000e-11
Integration weight cutoff        WCut        ... 1.0000e-14
Angular grids for H and He will be reduced by one unit
Partially contracted basis set               ... off
Rotationally invariant grid construction     ... off

Total number of grid points                  ...    39983
Total number of batches                      ...      627
Average number of points per batch           ...       63
Average number of grid points per atom       ...     9996

Building densities                               ... done   (      0.0 sec)
Calculating rho(r) on the grid                   ... done   (      0.1 sec)
Building xc-kernel on the grid                   ... done   (      0.1 sec)
                                                     done   (      0.6 sec)

Nuclear repulsion Hessian  (SHARK)               ... done   (      0.0 sec)

----------------------------------------------
Forming right-hand sides of CP-SCF equations     ...
----------------------------------------------
One electron integral derivatives  (SHARK)       ... done   (      0.0 sec)
Transforming the overlap derivative matrices     ... done   (      0.0 sec)
Making the Q(x) pseudodensities                  ... done   (      0.0 sec)
Adding the E*S(x)*S(y) terms to the Hessian      ... done   (      0.0 sec)
Calculating energy weighted overlap derivatives  ... done   (      0.0 sec)
Two electron integral derivatives (SHARK-RI)     ... done   (      2.4 sec)
Exchange-correlation integral derivatives        ... done   (      2.3 sec)
tr(F(y)Q(x)) contribution to the Hessian         ... done   (      0.0 sec)
Response fock operator R(S(x)) (SHARK-RIJCOSX)   ... done   (      0.9 sec)
XC Response fock operator R(S(x))                ... done   (      0.4 sec)
tr(F(y)S(x)) contribution to the Hessian         ... done   (      0.0 sec)
Transforming and finalizing RHSs                 ... done   (      0.1 sec)

----------------------------------------------
Solving the CP-SCF equations (RIJCOSX)           ...
----------------------------------------------
     CP-SCF ITERATION   0:   1.6089e-01 (   0.5 sec   0/ 12 done)
     CP-SCF ITERATION   1:   5.7393e-02 (   0.5 sec   0/ 12 done)
     CP-SCF ITERATION   2:   2.2668e-02 (   0.5 sec   0/ 12 done)
     CP-SCF ITERATION   3:   6.7822e-03 (   0.5 sec   0/ 12 done)
     CP-SCF ITERATION   4:   2.5194e-03 (   0.4 sec   0/ 12 done)
     CP-SCF ITERATION   5:   1.0821e-03 (   0.5 sec   1/ 12 done)
     CP-SCF ITERATION   6:   3.5590e-04 (   0.4 sec   2/ 12 done)
     CP-SCF ITERATION   7:   9.2387e-05 (   0.4 sec  12/ 12 done)
                    *** THE CP-SCF HAS CONVERGED ***

                                                 ... done   (      3.9 sec)
Forming perturbed density Hessian contributions  ... done   (      0.0 sec)
2nd integral derivative contribs (SHARK-RI)      ... done   (      6.8 sec)
Exchange-correlation Hessian                     ... done   (      0.9 sec)
Dispersion correction in the Hessian             ... done   (      0.1 sec)
Dipole derivatives                               ... (center of mass: -0.000009,  0.000000 -1.021638)done   (      0.1 sec)

Total SCF Hessian time: 0 days 0 hours 0 min 19 sec 

Writing the Hessian file to the disk             ... done


Maximum memory used throughout the entire SCFHESS-calculation: 145.6 MB

-----------------------
VIBRATIONAL FREQUENCIES
-----------------------

Scaling factor for frequencies =  1.000000000  (already applied!)

   0:         0.00 cm**-1
   1:         0.00 cm**-1
   2:         0.00 cm**-1
   3:         0.00 cm**-1
   4:         0.00 cm**-1
   5:         0.00 cm**-1
   6:       594.39 cm**-1
   7:       595.33 cm**-1
   8:       794.44 cm**-1
   9:      1014.64 cm**-1
  10:      1015.23 cm**-1
  11:      1072.92 cm**-1


------------
NORMAL MODES
------------

These modes are the Cartesian displacements weighted by the diagonal matrix
M(i,i)=1/sqrt(m[i]) where m[i] is the mass of the displaced atom
Thus, these vectors are normalized but *not* orthogonal

                  0          1          2          3          4          5    
      0       0.000000   0.000000   0.000000   0.000000   0.000000   0.000000
      1       0.000000   0.000000   0.000000   0.000000   0.000000   0.000000
      2       0.000000   0.000000   0.000000   0.000000   0.000000   0.000000
      3       0.000000   0.000000   0.000000   0.000000   0.000000   0.000000
      4       0.000000   0.000000   0.000000   0.000000   0.000000   0.000000
      5       0.000000   0.000000   0.000000   0.000000   0.000000   0.000000
      6       0.000000   0.000000   0.000000   0.000000   0.000000   0.000000
      7       0.000000   0.000000   0.000000   0.000000   0.000000   0.000000
      8       0.000000   0.000000   0.000000   0.000000   0.000000   0.000000
      9       0.000000   0.000000   0.000000   0.000000   0.000000   0.000000
     10       0.000000   0.000000   0.000000   0.000000   0.000000   0.000000
     11       0.000000   0.000000   0.000000   0.000000   0.000000   0.000000
                  6          7          8          9         10         11    
      0      -0.294005   0.000004  -0.000463  -0.000514   0.880257  -0.001224
      1       0.000004   0.293442   0.000000   0.880365   0.000514   0.000001
      2      -0.000425   0.000000  -0.585709  -0.000002   0.000752   0.827014
      3      -0.483368   0.000006   0.452263   0.000186  -0.319461   0.274456
      4      -0.000008  -0.608040  -0.000000  -0.051121  -0.000030   0.000000
      5      -0.070763   0.000001   0.123342  -0.000123   0.211948  -0.174596
      6       0.334616  -0.472985  -0.225985   0.116479  -0.118461  -0.136841
      7       0.473522   0.211254   0.390229  -0.252802   0.117133   0.236792
      8       0.035517   0.061223   0.123479   0.183764  -0.106104  -0.174131
      9       0.334628   0.472976  -0.225985  -0.116340  -0.118597  -0.136841
     10      -0.473517   0.211266  -0.390229  -0.252665  -0.117428  -0.236793
     11       0.035515  -0.061223   0.123479  -0.183639  -0.106319  -0.174132


-----------
IR SPECTRUM
-----------

 Mode   freq       eps      Int      T**2         TX        TY        TZ
       cm**-1   L/(mol*cm) km/mol    a.u.
----------------------------------------------------------------------------
  6:    594.39   0.000297    1.50  0.000156  (-0.012485  0.000000 -0.000034)
  7:    595.33   0.000292    1.48  0.000153  ( 0.000000  0.012376  0.000000)
  8:    794.44   0.002906   14.68  0.001141  (-0.000109 -0.000000 -0.033784)
  9:   1014.64   0.057826  292.23  0.017785  (-0.000078  0.133360 -0.000000)
 10:   1015.23   0.057866  292.43  0.017787  ( 0.133368  0.000078  0.000053)
 11:   1072.92   0.008847   44.71  0.002573  (-0.000222  0.000000  0.050726)

* The epsilon (eps) is given for a Dirac delta lineshape.
** The dipole moment derivative (T) already includes vibrational overlap.

The first frequency considered to be a vibration is 6
The total number of vibrations considered is 6


--------------------------
THERMOCHEMISTRY AT 298.15K
--------------------------

Temperature         ... 298.15 K
Pressure            ... 1.00 atm
Total Mass          ... 69.00 AMU

Throughout the following assumptions are being made:
  (1) The electronic state is orbitally nondegenerate
      but the spin degeneracy is treated
  (2) There are no thermally accessible electronically excited states
  (3) Hindered rotations indicated by low frequency modes are not
      treated as such but are treated as vibrations and this may
      cause some error
  (4) All equations used are the standard statistical mechanics
      equations for an ideal gas
  (5) All vibrations are strictly harmonic

freq.     594.39  E(vib)   ...       0.10 
freq.     595.33  E(vib)   ...       0.10 
freq.     794.44  E(vib)   ...       0.05 
freq.    1014.64  E(vib)   ...       0.02 
freq.    1015.23  E(vib)   ...       0.02 
freq.    1072.92  E(vib)   ...       0.02 

------------
INNER ENERGY
------------

The inner energy is: U= E(el) + E(ZPE) + E(vib) + E(rot) + E(trans)
    E(el)   - is the total energy from the electronic structure calculation
              = E(kin-el) + E(nuc-el) + E(el-el) + E(nuc-nuc)
    E(ZPE)  - the the zero temperature vibrational energy from the frequency calculation
    E(vib)  - the the finite temperature correction to E(ZPE) due to population
              of excited vibrational states
    E(rot)  - is the rotational thermal energy
    E(trans)- is the translational thermal energy

Summary of contributions to the inner energy U:
Electronic energy                ...   -337.58452636 Eh
Zero point energy                ...      0.01158891 Eh       7.27 kcal/mol
Thermal vibrational correction   ...      0.00050297 Eh       0.32 kcal/mol
Thermal rotational correction    ...      0.00141627 Eh       0.89 kcal/mol
Thermal translational correction ...      0.00141627 Eh       0.89 kcal/mol
-----------------------------------------------------------------------
Total thermal energy                   -337.56960194 Eh


Summary of corrections to the electronic energy:
(perhaps to be used in another calculation)
Total thermal correction                  0.00333551 Eh       2.09 kcal/mol
Non-thermal (ZPE) correction              0.01158891 Eh       7.27 kcal/mol
-----------------------------------------------------------------------
Total correction                          0.01492442 Eh       9.37 kcal/mol


--------
ENTHALPY
--------

The enthalpy is H = U + kB*T
                kB is Boltzmann's constant
Total free energy                 ...   -337.56960194 Eh 
Thermal Enthalpy correction       ...      0.00094421 Eh       0.59 kcal/mol
-----------------------------------------------------------------------
Total Enthalpy                    ...   -337.56865773 Eh


Note: Rotational entropy computed according to Herzberg 
Infrared and Raman Spectra, Chapter V,1, Van Nostrand Reinhold, 1945 
Point Group:  Cs, Symmetry Number:   1  
Rotational constants in cm-1:     0.382645     0.382591     0.213074 

Vibrational entropy computed according to the QRRHO of S. Grimme
Chem.Eur.J. 2012 18 9955


-------
ENTROPY
-------

The entropy contributions are T*S = T*(S(el)+S(vib)+S(rot)+S(trans))
     S(el)   - electronic entropy
     S(vib)  - vibrational entropy
     S(rot)  - rotational entropy
     S(trans)- translational entropy
The entropies will be listed as multiplied by the temperature to get
units of energy

Electronic entropy                ...      0.00065446 Eh      0.41 kcal/mol
Vibrational entropy               ...      0.00065386 Eh      0.41 kcal/mol
Rotational entropy                ...      0.01114781 Eh      7.00 kcal/mol
Translational entropy             ...      0.01834582 Eh     11.51 kcal/mol
-----------------------------------------------------------------------
Final entropy term                ...      0.03080194 Eh     19.33 kcal/mol

In case the symmetry of your molecule has not been determined correctly
or in case you have a reason to use a different symmetry number we print 
out the resulting rotational entropy values for sn=1,12 :
 --------------------------------------------------------
|  sn= 1 | S(rot)=       0.01114781 Eh      7.00 kcal/mol|
|  sn= 2 | S(rot)=       0.01049335 Eh      6.58 kcal/mol|
|  sn= 3 | S(rot)=       0.01011052 Eh      6.34 kcal/mol|
|  sn= 4 | S(rot)=       0.00983889 Eh      6.17 kcal/mol|
|  sn= 5 | S(rot)=       0.00962821 Eh      6.04 kcal/mol|
|  sn= 6 | S(rot)=       0.00945606 Eh      5.93 kcal/mol|
|  sn= 7 | S(rot)=       0.00931052 Eh      5.84 kcal/mol|
|  sn= 8 | S(rot)=       0.00918444 Eh      5.76 kcal/mol|
|  sn= 9 | S(rot)=       0.00907323 Eh      5.69 kcal/mol|
|  sn=10 | S(rot)=       0.00897375 Eh      5.63 kcal/mol|
|  sn=11 | S(rot)=       0.00888376 Eh      5.57 kcal/mol|
|  sn=12 | S(rot)=       0.00880161 Eh      5.52 kcal/mol|
 --------------------------------------------------------


-------------------
GIBBS FREE ENERGY
-------------------

The Gibbs free energy is G = H - T*S

Total enthalpy                    ...   -337.56865773 Eh 
Total entropy correction          ...     -0.03080194 Eh    -19.33 kcal/mol
-----------------------------------------------------------------------
Final Gibbs free energy         ...   -337.59945967 Eh

For completeness - the Gibbs free energy minus the electronic energy
G-E(el)                           ...     -0.01493331 Eh     -9.37 kcal/mol


Timings for individual modules:

Sum of individual times         ...      112.343 sec (=   1.872 min)
GTO integral calculation        ...       15.569 sec (=   0.259 min)  13.9 %
SCF iterations                  ...       57.040 sec (=   0.951 min)  50.8 %
SCF Gradient evaluation         ...       16.750 sec (=   0.279 min)  14.9 %
Geometry relaxation             ...        0.208 sec (=   0.003 min)   0.2 %
Analytical frequency calculation...       22.775 sec (=   0.380 min)  20.3 %
                             ****ORCA TERMINATED NORMALLY****
TOTAL RUN TIME: 0 days 0 hours 2 minutes 8 seconds 486 msec

slurmID:    32260086
totalRuntime[s]:    128.523658272
