
                                 *****************
                                 * O   R   C   A *
                                 *****************

                                            #,                                       
                                            ###                                      
                                            ####                                     
                                            #####                                    
                                            ######                                   
                                           ########,                                 
                                     ,,################,,,,,                         
                               ,,#################################,,                 
                          ,,##########################################,,             
                       ,#########################################, ''#####,          
                    ,#############################################,,   '####,        
                  ,##################################################,,,,####,       
                ,###########''''           ''''###############################       
              ,#####''   ,,,,##########,,,,          '''####'''          '####       
            ,##' ,,,,###########################,,,                        '##       
           ' ,,###''''                  '''############,,,                           
         ,,##''                                '''############,,,,        ,,,,,,###''
      ,#''                                            '''#######################'''  
     '                                                          ''''####''''         
             ,#######,   #######,   ,#######,      ##                                
            ,#'     '#,  ##    ##  ,#'     '#,    #''#        ######   ,####,        
            ##       ##  ##   ,#'  ##            #'  '#       #        #'  '#        
            ##       ##  #######   ##           ,######,      #####,   #    #        
            '#,     ,#'  ##    ##  '#,     ,#' ,#      #,         ##   #,  ,#        
             '#######'   ##     ##  '#######'  #'      '#     #####' # '####'        



                  #######################################################
                  #                        -***-                        #
                  #          Department of theory and spectroscopy      #
                  #    Directorship and core code : Frank Neese         #
                  #        Max Planck Institute fuer Kohlenforschung    #
                  #                Kaiser Wilhelm Platz 1               #
                  #                 D-45470 Muelheim/Ruhr               #
                  #                      Germany                        #
                  #                                                     #
                  #                  All rights reserved                #
                  #                        -***-                        #
                  #######################################################


                         Program Version 5.0.4 -  RELEASE  -


 With contributions from (in alphabetic order):
   Daniel Aravena         : Magnetic Suceptibility
   Michael Atanasov       : Ab Initio Ligand Field Theory (pilot matlab implementation)
   Alexander A. Auer      : GIAO ZORA, VPT2 properties, NMR spectrum
   Ute Becker             : Parallelization
   Giovanni Bistoni       : ED, misc. LED, open-shell LED, HFLD
   Martin Brehm           : Molecular dynamics
   Dmytro Bykov           : SCF Hessian
   Vijay G. Chilkuri      : MRCI spin determinant printing, contributions to CSF-ICE
   Dipayan Datta          : RHF DLPNO-CCSD density
   Achintya Kumar Dutta   : EOM-CC, STEOM-CC
   Dmitry Ganyushin       : Spin-Orbit,Spin-Spin,Magnetic field MRCI
   Miquel Garcia          : C-PCM and meta-GGA Hessian, CC/C-PCM, Gaussian charge scheme
   Yang Guo               : DLPNO-NEVPT2, F12-NEVPT2, CIM, IAO-localization
   Andreas Hansen         : Spin unrestricted coupled pair/coupled cluster methods
   Benjamin Helmich-Paris : MC-RPA, TRAH-SCF, COSX integrals
   Lee Huntington         : MR-EOM, pCC
   Robert Izsak           : Overlap fitted RIJCOSX, COSX-SCS-MP3, EOM
   Marcus Kettner         : VPT2
   Christian Kollmar      : KDIIS, OOCD, Brueckner-CCSD(T), CCSD density, CASPT2, CASPT2-K
   Simone Kossmann        : Meta GGA functionals, TD-DFT gradient, OOMP2, MP2 Hessian
   Martin Krupicka        : Initial AUTO-CI
   Lucas Lang             : DCDCAS
   Marvin Lechner         : AUTO-CI (C++ implementation), FIC-MRCC
   Dagmar Lenk            : GEPOL surface, SMD
   Dimitrios Liakos       : Extrapolation schemes; Compound Job, initial MDCI parallelization
   Dimitrios Manganas     : Further ROCIS development; embedding schemes
   Dimitrios Pantazis     : SARC Basis sets
   Anastasios Papadopoulos: AUTO-CI, single reference methods and gradients
   Taras Petrenko         : DFT Hessian,TD-DFT gradient, ASA, ECA, R-Raman, ABS, FL, XAS/XES, NRVS
   Peter Pinski           : DLPNO-MP2, DLPNO-MP2 Gradient
   Christoph Reimann      : Effective Core Potentials
   Marius Retegan         : Local ZFS, SOC
   Christoph Riplinger    : Optimizer, TS searches, QM/MM, DLPNO-CCSD(T), (RO)-DLPNO pert. Triples
   Tobias Risthaus        : Range-separated hybrids, TD-DFT gradient, RPA, STAB
   Michael Roemelt        : Original ROCIS implementation
   Masaaki Saitow         : Open-shell DLPNO-CCSD energy and density
   Barbara Sandhoefer     : DKH picture change effects
   Avijit Sen             : IP-ROCIS
   Kantharuban Sivalingam : CASSCF convergence, NEVPT2, FIC-MRCI
   Bernardo de Souza      : ESD, SOC TD-DFT
   Georgi Stoychev        : AutoAux, RI-MP2 NMR, DLPNO-MP2 response
   Willem Van den Heuvel  : Paramagnetic NMR
   Boris Wezisla          : Elementary symmetry handling
   Frank Wennmohs         : Technical directorship


 We gratefully acknowledge several colleagues who have allowed us to
 interface, adapt or use parts of their codes:
   Stefan Grimme, W. Hujo, H. Kruse, P. Pracht,  : VdW corrections, initial TS optimization,
                  C. Bannwarth, S. Ehlert          DFT functionals, gCP, sTDA/sTD-DF
   Ed Valeev, F. Pavosevic, A. Kumar             : LibInt (2-el integral package), F12 methods
   Garnet Chan, S. Sharma, J. Yang, R. Olivares  : DMRG
   Ulf Ekstrom                                   : XCFun DFT Library
   Mihaly Kallay                                 : mrcc  (arbitrary order and MRCC methods)
   Jiri Pittner, Ondrej Demel                    : Mk-CCSD
   Frank Weinhold                                : gennbo (NPA and NBO analysis)
   Christopher J. Cramer and Donald G. Truhlar   : smd solvation model
   Lars Goerigk                                  : TD-DFT with DH, B97 family of functionals
   V. Asgeirsson, H. Jonsson                     : NEB implementation
   FAccTs GmbH                                   : IRC, NEB, NEB-TS, DLPNO-Multilevel, CI-OPT
                                                   MM, QMMM, 2- and 3-layer-ONIOM, Crystal-QMMM,
                                                   LR-CPCM, SF, NACMEs, symmetry and pop. for TD-DFT,
                                                   nearIR, NL-DFT gradient (VV10), updates on ESD,
                                                   ML-optimized integration grids
   S Lehtola, MJT Oliveira, MAL Marques          : LibXC Library
   Liviu Ungur et al                             : ANISO software


 Your calculation uses the libint2 library for the computation of 2-el integrals
 For citations please refer to: http://libint.valeyev.net

 Your ORCA version has been built with support for libXC version: 5.1.0
 For citations please refer to: https://tddft.org/programs/libxc/

 This ORCA versions uses:
   CBLAS   interface :  Fast vector & matrix operations
   LAPACKE interface :  Fast linear algebra routines
   SCALAPACK package :  Parallel linear algebra routines
   Shared memory     :  Shared parallel matrices
   BLAS/LAPACK       :  OpenBLAS 0.3.15  USE64BITINT DYNAMIC_ARCH NO_AFFINITY SkylakeX SINGLE_THREADED
        Core in use  :  SkylakeX
   Copyright (c) 2011-2014, The OpenBLAS Project


Your calculation utilizes the atom-pairwise dispersion correction
with the zero-damping scheme (D30)
Cite in your paper:
S.Grimme, J.Antony, S.Ehrlich and H.Krieg, J.Chem.Phys., 132, (2010), 154104 
   

XCFun DFT library Copyright 2009-2010 Ulf Ekstrom and contributors.
See http://admol.org/xcfun for more information.
This is free software; see the source code for copying conditions.
There is ABSOLUTELY NO WARRANTY; not even for MERCHANTABILITY or FITNESS FOR A PARTICULAR PURPOSE.
For details see the documentation.
Scientific users of this library should cite U. Ekstrom, L. Visscher, R. Bast, A. J. Thorvaldsen and K. Ruud;
J.Chem.Theor.Comp. 2010, DOI: 10.1021/ct100117s
XCFun Version 0.99 

================================================================================

----- Orbital basis set information -----
Your calculation utilizes the basis: def2-TZVPD
   F. Weigend and R. Ahlrichs, Phys. Chem. Chem. Phys. 7, 3297 (2005).
   D. Rappoport and F. Furche, J. Chem. Phys. 133 134105 (2010).

----- AuxJ basis set information -----
Your calculation utilizes the auxiliary basis: def2/J
   F. Weigend, Phys. Chem. Chem. Phys. 8, 1057 (2006).

================================================================================
                                        WARNINGS
                       Please study these warnings very carefully!
================================================================================


WARNING: Geometry Optimization
  ===> : Switching off AutoStart
         For restart on a previous wavefunction, please use MOREAD

INFO   : the flag for use of the SHARK integral package has been found!

================================================================================
                                       INPUT FILE
================================================================================
NAME = /beegfs/scratch/ispackman/PFAS_EPR_calcs/benchmark/JChemEd_CF3_radical/CF3_radical_101.5_degrees_IN-PROGRESS/CF3_radical_101.5_degrees.inp
|  1> ! UKS TightSCF wB97x-D3 def2-TZVPD xyzfile opt freq
|  2> 
|  3> # CF3 radical 101.5 degrees fixed
|  4> 
|  5> %maxcore 1000
|  6> %pal
|  7> nprocs 18
|  8> end
|  9> 
| 10> %geom Constraints
| 11>         { A * 0 * C }
| 12>     end
| 13> end
| 14> * xyz 0 2
| 15> C 0.00 0.00 0.00
| 16> F 1.1758619580 0.0000000000 -0.5887050669
| 17> F -0.5879309790 1.0183263270 -0.5887050669
| 18> F -0.5879309790 -1.0183263270 -0.5887050669
| 19> **                         ****END OF INPUT****
================================================================================

                       *****************************
                       * Geometry Optimization Run *
                       *****************************

Geometry optimization settings:
Update method            Update   .... BFGS
Choice of coordinates    CoordSys .... Z-matrix Internals
Initial Hessian          InHess   .... Almoef's Model

Convergence Tolerances:
Energy Change            TolE     ....  5.0000e-06 Eh
Max. Gradient            TolMAXG  ....  3.0000e-04 Eh/bohr
RMS Gradient             TolRMSG  ....  1.0000e-04 Eh/bohr
Max. Displacement        TolMAXD  ....  4.0000e-03 bohr
RMS Displacement         TolRMSD  ....  2.0000e-03 bohr
Strict Convergence                ....  False
------------------------------------------------------------------------------
                        ORCA OPTIMIZATION COORDINATE SETUP
------------------------------------------------------------------------------

The optimization will be done in new redundant internal coordinates
Making redundant internal coordinates   ...  (new redundants) done
Evaluating the initial hessian          ...  (Almloef) done
Evaluating the coordinates              ...  done
Calculating the B-matrix                .... done
Calculating the G-matrix                .... done
Diagonalizing the G-matrix              .... done
Imposing constraints:
 Iter   0:  RMS(Cart)=    0.0000000000 RMS(Int)=    0.0000000000
CONVERGED
Will constrain atom 0 coordinate 1 
Will constrain atom 0 coordinate 2 
Will constrain atom 1 coordinate 2 
The first mode is                       ....    1
The number of degrees of freedom        ....    6
Storing new coordinates                 .... done

    -----------------------------------------------------------------
                    Redundant Internal Coordinates


    -----------------------------------------------------------------
         Definition                    Initial Value    Approx d2E/dq
    -----------------------------------------------------------------
      1. B(F   1,C   0)                  1.3150         0.684896   
      2. B(F   2,C   0)                  1.3150         0.684896   
      3. B(F   3,C   0)                  1.3150         0.684896   
      4. A(F   2,C   0,F   3)          101.5000         0.440101 C 
      5. A(F   1,C   0,F   2)          101.5000         0.440101 C 
      6. A(F   1,C   0,F   3)          101.5000         0.440101 C 
      7. I(F   1,F   3,F   2,C   0)     71.6329         0.003350   
    -----------------------------------------------------------------

Number of atoms                         .... 4
Number of degrees of freedom            .... 7

         *************************************************************
         *                GEOMETRY OPTIMIZATION CYCLE   1            *
         *************************************************************
---------------------------------
CARTESIAN COORDINATES (ANGSTROEM)
---------------------------------
  C      0.000000    0.000000    0.000000
  F      1.175862    0.000000   -0.588705
  F     -0.587931    1.018326   -0.588705
  F     -0.587931   -1.018326   -0.588705

----------------------------
CARTESIAN COORDINATES (A.U.)
----------------------------
  NO LB      ZA    FRAG     MASS         X           Y           Z
   0 C     6.0000    0    12.011    0.000000    0.000000    0.000000
   1 F     9.0000    0    18.998    2.222057    0.000000   -1.112491
   2 F     9.0000    0    18.998   -1.111029    1.924358   -1.112491
   3 F     9.0000    0    18.998   -1.111029   -1.924358   -1.112491

--------------------------------
INTERNAL COORDINATES (ANGSTROEM)
--------------------------------
 C      0   0   0     0.000000000000     0.00000000     0.00000000
 F      1   0   0     1.315000000025     0.00000000     0.00000000
 F      1   2   0     1.315000000047   101.50000000     0.00000000
 F      1   2   3     1.315000000047   101.50000000   104.41912479

---------------------------
INTERNAL COORDINATES (A.U.)
---------------------------
 C      0   0   0     0.000000000000     0.00000000     0.00000000
 F      1   0   0     2.484989866153     0.00000000     0.00000000
 F      1   2   0     2.484989866195   101.50000000     0.00000000
 F      1   2   3     2.484989866195   101.50000000   104.41912479

---------------------
BASIS SET INFORMATION
---------------------
There are 2 groups of distinct atoms

 Group   1 Type C   : 12s6p3d1f contracted to 6s3p3d1f pattern {621111/411/111/1}
 Group   2 Type F   : 12s7p3d1f contracted to 6s4p3d1f pattern {621111/4111/111/1}

Atom   0C    basis set group =>   1
Atom   1F    basis set group =>   2
Atom   2F    basis set group =>   2
Atom   3F    basis set group =>   2
---------------------------------
AUXILIARY/J BASIS SET INFORMATION
---------------------------------
There are 2 groups of distinct atoms

 Group   1 Type C   : 12s5p4d2f1g contracted to 6s4p3d1f1g pattern {711111/2111/211/2/1}
 Group   2 Type F   : 12s5p4d2f1g contracted to 6s4p3d1f1g pattern {711111/2111/211/2/1}

Atom   0C    basis set group =>   1
Atom   1F    basis set group =>   2
Atom   2F    basis set group =>   2
Atom   3F    basis set group =>   2


           ************************************************************
           *        Program running with 18 parallel MPI-processes    *
           *              working on a common directory               *
           ************************************************************
------------------------------------------------------------------------------
                           ORCA GTO INTEGRAL CALCULATION
                           -- RI-GTO INTEGRALS CHOSEN --
------------------------------------------------------------------------------
------------------------------------------------------------------------------
                   ___                                                        
                  /   \      - P O W E R E D   B Y -                         
                 /     \                                                     
                 |  |  |   _    _      __       _____    __    __             
                 |  |  |  | |  | |    /  \     |  _  \  |  |  /  |          
                  \  \/   | |  | |   /    \    | | | |  |  | /  /          
                 / \  \   | |__| |  /  /\  \   | |_| |  |  |/  /          
                |  |  |   |  __  | /  /__\  \  |    /   |      \           
                |  |  |   | |  | | |   __   |  |    \   |  |\   \          
                \     /   | |  | | |  |  |  |  | |\  \  |  | \   \       
                 \___/    |_|  |_| |__|  |__|  |_| \__\ |__|  \__/        
                                                                              
                      - O R C A' S   B I G   F R I E N D -                    
                                      &                                       
                       - I N T E G R A L  F E E D E R -                       
                                                                              
 v1 FN, 2020, v2 2021                                                         
------------------------------------------------------------------------------


Reading SHARK input file /beegfs/scratch/ispackman/PFAS_EPR_calcs/benchmark/JChemEd_CF3_radical/CF3_radical_101.5_degrees_IN-PROGRESS/CF3_radical_101.5_degrees.SHARKINP.tmp ... ok
----------------------
SHARK INTEGRAL PACKAGE
----------------------

Number of atoms                             ...      4
Number of basis functions                   ...    157
Number of shells                            ...     55
Maximum angular momentum                    ...      3
Integral batch strategy                     ... SHARK/LIBINT Hybrid
RI-J (if used) integral strategy            ... SPLIT-RIJ (Revised 2003 algorithm where possible)
Printlevel                                  ...      1
Contraction scheme used                     ... SEGMENTED contraction
Coulomb Range Separation                    ... NOT USED
Exchange Range Separation                   ... Long Range
   Mu parameter                             ...  0.250000
   Scaling (regular/separated)              ...  0.195728  0.804272
Finite Nucleus Model                        ... NOT USED
Auxiliary Coulomb fitting basis             ... AVAILABLE
   # of basis functions in Aux-J            ...    196
   # of shells in Aux-J                     ...     60
   Maximum angular momentum in Aux-J        ...      4
Auxiliary J/K fitting basis                 ... NOT available
Auxiliary Correlation fitting basis         ... NOT available
Auxiliary 'external' fitting basis          ... NOT available
Integral threshold                          ...     2.500000e-11
Primitive cut-off                           ...     2.500000e-12
Primitive pair pre-selection threshold      ...     2.500000e-12

Calculating pre-screening integrals         ... done (  0.0 sec) Dimension = 55
Organizing shell pair data                  ... done (  0.0 sec)
Shell pair information
Total number of shell pairs                 ...      1540
Shell pairs after pre-screening             ...      1510
Total number of primitive shell pairs       ...      4274
Primitive shell pairs kept                  ...      3581
          la=0 lb=0:    282 shell pairs
          la=1 lb=0:    360 shell pairs
          la=1 lb=1:    120 shell pairs
          la=2 lb=0:    276 shell pairs
          la=2 lb=1:    180 shell pairs
          la=2 lb=2:     78 shell pairs
          la=3 lb=0:     96 shell pairs
          la=3 lb=1:     60 shell pairs
          la=3 lb=2:     48 shell pairs
          la=3 lb=3:     10 shell pairs

Calculating one electron integrals          ... done (  0.0 sec)
Calculating RI/J V-Matrix + Cholesky decomp.... done (  0.1 sec)
Calculating Nuclear repulsion               ... done (  0.0 sec) ENN=    128.329356929446 Eh

SHARK setup successfully completed in   0.4 seconds

Maximum memory used throughout the entire GTOINT-calculation: 15.2 MB


           ************************************************************
           *        Program running with 18 parallel MPI-processes    *
           *              working on a common directory               *
           ************************************************************
-------------------------------------------------------------------------------
                                 ORCA SCF
-------------------------------------------------------------------------------

------------
SCF SETTINGS
------------
Hamiltonian:
 Density Functional     Method          .... DFT(GTOs)
 Exchange Functional    Exchange        .... WB97X-D3
 Correlation Functional Correlation     .... WB97X-D3
 Gradients option       PostSCFGGA      .... off
 Hybrid DFT is turned on
   Fraction HF Exchange ScalHFX         ....  0.195728
   Scaling of DF-GGA-X  ScalDFX         ....  0.000000
   Scaling of DF-GGA-C  ScalDFC         ....  1.000000
   Scaling of DF-LDA-C  ScalLDAC        ....  1.000000
   Perturbative correction              ....  0.000000
   Density functional embedding theory  .... OFF
 Long-range corrected/Screened/Range-Separated Hybrid DFT is turned on
   Amount of maximum screened exact exchange              ....  0.804272
   Range separation parameter mu (erf(mu*r12)/r12)        ....  0.250000
 RI-approximation to the Coulomb term is turned on
   Number of AuxJ basis functions       .... 196
   RIJ-COSX (HFX calculated with COS-X)).... on


General Settings:
 Integral files         IntName         .... /beegfs/scratch/ispackman/PFAS_EPR_calcs/benchmark/JChemEd_CF3_radical/CF3_radical_101.5_degrees_IN-PROGRESS/CF3_radical_101.5_degrees
 Hartree-Fock type      HFTyp           .... UHF
 Total Charge           Charge          ....    0
 Multiplicity           Mult            ....    2
 Number of Electrons    NEL             ....   33
 Basis Dimension        Dim             ....  157
 Nuclear Repulsion      ENuc            ....    128.3293569294 Eh

Convergence Acceleration:
 DIIS                   CNVDIIS         .... on
   Start iteration      DIISMaxIt       ....    12
   Startup error        DIISStart       ....  0.200000
   # of expansion vecs  DIISMaxEq       ....     5
   Bias factor          DIISBfac        ....   1.050
   Max. coefficient     DIISMaxC        ....  10.000
 Trust-Rad. Augm. Hess. CNVTRAH         .... auto
   Auto Start mean grad. ratio tolernc. ....  1.125000
   Auto Start start iteration           ....    20
   Auto Start num. interpolation iter.  ....    10
   Max. Number of Micro iterations      ....    16
   Max. Number of Macro iterations      .... Maxiter - #DIIS iter
   Number of Davidson start vectors     ....     2
   Converg. threshold I  (grad. norm)   ....   1.000e-05
   Converg. threshold II (energy diff.) ....   1.000e-08
   Grad. Scal. Fac. for Micro threshold ....   0.100
   Minimum threshold for Micro iter.    ....   0.010
   NR start threshold (gradient norm)   ....   0.001
   Initial trust radius                 ....   0.400
   Minimum AH scaling param. (alpha)    ....   1.000
   Maximum AH scaling param. (alpha)    .... 1000.000
   Orbital update algorithm             .... Taylor
   White noise on init. David. guess    .... on
   Maximum white noise                  ....   0.010
   Quad. conv. algorithm                .... NR
 SOSCF                  CNVSOSCF        .... off
 Level Shifting         CNVShift        .... on
   Level shift para.    LevelShift      ....    0.2500
   Turn off err/grad.   ShiftErr        ....    0.0010
 Zerner damping         CNVZerner       .... off
 Static damping         CNVDamp         .... on
   Fraction old density DampFac         ....    0.7000
   Max. Damping (<1)    DampMax         ....    0.9800
   Min. Damping (>=0)   DampMin         ....    0.0000
   Turn off err/grad.   DampErr         ....    0.1000
 Fernandez-Rico         CNVRico         .... off

SCF Procedure:
 Maximum # iterations   MaxIter         ....   125
 SCF integral mode      SCFMode         .... Direct
   Integral package                     .... SHARK and LIBINT hybrid scheme
 Reset frequency        DirectResetFreq ....    20
 Integral Threshold     Thresh          ....  2.500e-11 Eh
 Primitive CutOff       TCut            ....  2.500e-12 Eh

Convergence Tolerance:
 Convergence Check Mode ConvCheckMode   .... Total+1el-Energy
 Convergence forced     ConvForced      .... 0
 Energy Change          TolE            ....  1.000e-08 Eh
 1-El. energy change                    ....  1.000e-05 Eh
 DIIS Error             TolErr          ....  5.000e-07


Diagonalization of the overlap matrix:
Smallest eigenvalue                        ... 3.560e-04
Time for diagonalization                   ...    0.007 sec
Threshold for overlap eigenvalues          ... 1.000e-08
Number of eigenvalues below threshold      ... 0
Time for construction of square roots      ...    0.036 sec
Total time needed                          ...    0.045 sec

Time for model grid setup =    0.067 sec

------------------------------
INITIAL GUESS: MODEL POTENTIAL
------------------------------
Loading Hartree-Fock densities                     ... done
Calculating cut-offs                               ... done
Initializing the effective Hamiltonian             ... done
Setting up the integral package (SHARK)            ... done
Starting the Coulomb interaction                   ... done (   0.1 sec)
Reading the grid                                   ... done
Mapping shells                                     ... done
Starting the XC term evaluation                    ... done (   0.0 sec)
  promolecular density results
     # of electrons  =     33.000325799
     EX              =    -35.102780971
     EC              =     -1.147975166
     EX+EC           =    -36.250756137
Transforming the Hamiltonian                       ... done (   0.0 sec)
Diagonalizing the Hamiltonian                      ... done (   0.0 sec)
Back transforming the eigenvectors                 ... done (   0.0 sec)
Now organizing SCF variables                       ... done
                      ------------------
                      INITIAL GUESS DONE (   0.3 sec)
                      ------------------
-------------------
DFT GRID GENERATION
-------------------

General Integration Accuracy     IntAcc      ... 4.388
Radial Grid Type                 RadialGrid  ... OptM3 with GC (2021)
Angular Grid (max. ang.)         AngularGrid ... 4 (Lebedev-302)
Angular grid pruning method      GridPruning ... 4 (adaptive)
Weight generation scheme         WeightScheme... Becke
Basis function cutoff            BFCut       ... 1.0000e-11
Integration weight cutoff        WCut        ... 1.0000e-14
Angular grids for H and He will be reduced by one unit
Partially contracted basis set               ... off
Rotationally invariant grid construction     ... off

Total number of grid points                  ...    25779
Total number of batches                      ...      406
Average number of points per batch           ...       63
Average number of grid points per atom       ...     6445
Time for grid setup =    0.158 sec

--------------------
COSX GRID GENERATION
--------------------

GRIDX 1
-------
General Integration Accuracy     IntAcc      ... 3.816
Radial Grid Type                 RadialGrid  ... OptM3 with GC (2021)
Angular Grid (max. ang.)         AngularGrid ... 1 (Lebedev-50)
Angular grid pruning method      GridPruning ... 4 (adaptive)
Weight generation scheme         WeightScheme... Becke
Basis function cutoff            BFCut       ... 1.0000e-11
Integration weight cutoff        WCut        ... 1.0000e-14
Angular grids for H and He will be reduced by one unit
Partially contracted basis set               ... on
Rotationally invariant grid construction     ... off

Total number of grid points                  ...     3272
Total number of batches                      ...       53
Average number of points per batch           ...       61
Average number of grid points per atom       ...      818
UseSFitting                                  ... on

GRIDX 2
-------
General Integration Accuracy     IntAcc      ... 4.020
Radial Grid Type                 RadialGrid  ... OptM3 with GC (2021)
Angular Grid (max. ang.)         AngularGrid ... 2 (Lebedev-110)
Angular grid pruning method      GridPruning ... 4 (adaptive)
Weight generation scheme         WeightScheme... Becke
Basis function cutoff            BFCut       ... 1.0000e-11
Integration weight cutoff        WCut        ... 1.0000e-14
Angular grids for H and He will be reduced by one unit
Partially contracted basis set               ... on
Rotationally invariant grid construction     ... off

Total number of grid points                  ...     9116
Total number of batches                      ...      145
Average number of points per batch           ...       62
Average number of grid points per atom       ...     2279
UseSFitting                                  ... on

GRIDX 3
-------
General Integration Accuracy     IntAcc      ... 4.338
Radial Grid Type                 RadialGrid  ... OptM3 with GC (2021)
Angular Grid (max. ang.)         AngularGrid ... 3 (Lebedev-194)
Angular grid pruning method      GridPruning ... 4 (adaptive)
Weight generation scheme         WeightScheme... Becke
Basis function cutoff            BFCut       ... 1.0000e-11
Integration weight cutoff        WCut        ... 1.0000e-14
Angular grids for H and He will be reduced by one unit
Partially contracted basis set               ... on
Rotationally invariant grid construction     ... off

Total number of grid points                  ...    19675
Total number of batches                      ...      311
Average number of points per batch           ...       63
Average number of grid points per atom       ...     4919
UseSFitting                                  ... on

Time for X-Grid setup             =    0.423 sec

--------------
SCF ITERATIONS
--------------
ITER       Energy         Delta-E        Max-DP      RMS-DP      [F,P]     Damp
               ***  Starting incremental Fock matrix formation  ***
  0   -337.5425436975   0.000000000000 0.01724898  0.00040012  0.0666200 0.7000
  1   -337.5698882967  -0.027344599252 0.01008196  0.00026682  0.0313255 0.7000
                               ***Turning on DIIS***
  2   -337.5812869301  -0.011398633400 0.02436318  0.00050904  0.0166062 0.0000
  3   -337.6015979530  -0.020311022931 0.00652913  0.00014973  0.0148464 0.0000
  4   -337.6048368178  -0.003238864749 0.00510388  0.00008351  0.0035421 0.0000
  5   -337.6050585930  -0.000221775158 0.00292786  0.00004987  0.0020738 0.0000
  6   -337.6051263276  -0.000067734682 0.00271922  0.00004577  0.0008683 0.0000
               *** Restarting incremental Fock matrix formation ***
                                   *** Resetting DIIS ***
  7   -337.6051546389  -0.000028311222 0.00051244  0.00000782  0.0001781 0.0000
  8   -337.6051554259  -0.000000787064 0.00010071  0.00000217  0.0000923 0.0000
  9   -337.6051556122  -0.000000186277 0.00005649  0.00000144  0.0000877 0.0000
 10   -337.6051556975  -0.000000085350 0.00004542  0.00000057  0.0000123 0.0000
 11   -337.6051556999  -0.000000002309 0.00001258  0.00000015  0.0000019 0.0000
                            ***DIIS convergence achieved***

               *****************************************************
               *                     SUCCESS                       *
               *           SCF CONVERGED AFTER  12 CYCLES          *
               *****************************************************

Old exchange energy                            =    -10.542119682 Eh
New exchange energy                            =    -10.542098455 Eh
Exchange energy change after final integration =      0.000021227 Eh
Total energy after final integration           =   -337.605134473 Eh
Final COS-X integration done in                =     0.398 sec

----------------
TOTAL SCF ENERGY
----------------

Total Energy       :         -337.60513447 Eh           -9186.70275 eV

Components:
Nuclear Repulsion  :          128.32935693 Eh            3492.01933 eV
Electronic Energy  :         -465.93449140 Eh          -12678.72208 eV
One Electron Energy:         -723.58257236 Eh          -19689.68280 eV
Two Electron Energy:          257.64808096 Eh            7010.96071 eV
Max COSX asymmetry :            0.00000041 Eh               0.00001 eV

Virial components:
Potential Energy   :         -674.39105604 Eh          -18351.11359 eV
Kinetic Energy     :          336.78592157 Eh            9164.41084 eV
Virial Ratio       :            2.00243244


DFT components:
N(Alpha)           :       16.999885081619 electrons
N(Beta)            :       15.999897754067 electrons
N(Total)           :       32.999782835687 electrons
E(XC)              :      -26.213603156616 Eh       
DFET-embed. en.    :        0.000000000000 Eh       

---------------
SCF CONVERGENCE
---------------

  Last Energy change         ...   -3.0087e-10  Tolerance :   1.0000e-08
  Last MAX-Density change    ...    0.0000e+00  Tolerance :   1.0000e-07
  Last RMS-Density change    ...    0.0000e+00  Tolerance :   5.0000e-09
  Last DIIS Error            ...    8.0933e-07  Tolerance :   5.0000e-07

             **** THE GBW FILE WAS UPDATED (/beegfs/scratch/ispackman/PFAS_EPR_calcs/benchmark/JChemEd_CF3_radical/CF3_radical_101.5_degrees_IN-PROGRESS/CF3_radical_101.5_degrees.gbw) ****
             **** DENSITY /beegfs/scratch/ispackman/PFAS_EPR_calcs/benchmark/JChemEd_CF3_radical/CF3_radical_101.5_degrees_IN-PROGRESS/CF3_radical_101.5_degrees.scfp WAS UPDATED ****
             **** ENERGY FILE WAS UPDATED (/beegfs/scratch/ispackman/PFAS_EPR_calcs/benchmark/JChemEd_CF3_radical/CF3_radical_101.5_degrees_IN-PROGRESS/CF3_radical_101.5_degrees.en.tmp) ****
----------------------
UHF SPIN CONTAMINATION
----------------------

Warning: in a DFT calculation there is little theoretical justification to 
         calculate <S**2> as in Hartree-Fock theory. We will do it anyways
         but you should keep in mind that the values have only limited relevance

Expectation value of <S**2>     :     0.752137
Ideal value S*(S+1) for S=0.5   :     0.750000
Deviation                       :     0.002137

             **** THE GBW FILE WAS UPDATED (/beegfs/scratch/ispackman/PFAS_EPR_calcs/benchmark/JChemEd_CF3_radical/CF3_radical_101.5_degrees_IN-PROGRESS/CF3_radical_101.5_degrees.gbw) ****
             **** DENSITY /beegfs/scratch/ispackman/PFAS_EPR_calcs/benchmark/JChemEd_CF3_radical/CF3_radical_101.5_degrees_IN-PROGRESS/CF3_radical_101.5_degrees.scfp WAS UPDATED ****
----------------
ORBITAL ENERGIES
----------------
                 SPIN UP ORBITALS
  NO   OCC          E(Eh)            E(eV) 
   0   1.0000     -24.840398      -675.9416 
   1   1.0000     -24.840395      -675.9415 
   2   1.0000     -24.840384      -675.9412 
   3   1.0000     -10.550487      -287.0933 
   4   1.0000      -1.483851       -40.3776 
   5   1.0000      -1.368144       -37.2291 
   6   1.0000      -1.368137       -37.2289 
   7   1.0000      -0.838539       -22.8178 
   8   1.0000      -0.725654       -19.7460 
   9   1.0000      -0.725645       -19.7458 
  10   1.0000      -0.707184       -19.2435 
  11   1.0000      -0.606307       -16.4985 
  12   1.0000      -0.606301       -16.4983 
  13   1.0000      -0.547700       -14.9037 
  14   1.0000      -0.547691       -14.9034 
  15   1.0000      -0.527093       -14.3429 
  16   1.0000      -0.429249       -11.6805 
  17   0.0000       0.072528         1.9736 
  18   0.0000       0.105477         2.8702 
  19   0.0000       0.105477         2.8702 
  20   0.0000       0.111950         3.0463 
  21   0.0000       0.160375         4.3640 
  22   0.0000       0.160376         4.3640 
  23   0.0000       0.171962         4.6793 
  24   0.0000       0.171963         4.6793 
  25   0.0000       0.189375         5.1532 
  26   0.0000       0.216110         5.8807 
  27   0.0000       0.216117         5.8808 
  28   0.0000       0.240628         6.5478 
  29   0.0000       0.288700         7.8559 
  30   0.0000       0.349300         9.5049 
  31   0.0000       0.349561         9.5120 
  32   0.0000       0.349569         9.5122 
  33   0.0000       0.386478        10.5166 
  34   0.0000       0.386479        10.5166 
  35   0.0000       0.398126        10.8336 
  36   0.0000       0.403389        10.9768 
  37   0.0000       0.403390        10.9768 
  38   0.0000       0.421183        11.4610 
  39   0.0000       0.486991        13.2517 
  40   0.0000       0.486997        13.2519 
  41   0.0000       0.520157        14.1542 
  42   0.0000       0.566665        15.4197 
  43   0.0000       0.626228        17.0405 
  44   0.0000       0.626229        17.0406 
  45   0.0000       0.694332        18.8937 
  46   0.0000       0.694336        18.8939 
  47   0.0000       0.709939        19.3184 
  48   0.0000       0.728312        19.8184 
  49   0.0000       0.729219        19.8431 
  50   0.0000       0.729228        19.8433 
  51   0.0000       0.764893        20.8138 
  52   0.0000       0.794146        21.6098 
  53   0.0000       0.794148        21.6099 
  54   0.0000       0.873653        23.7733 
  55   0.0000       0.899481        24.4761 
  56   0.0000       0.899487        24.4763 
  57   0.0000       0.932301        25.3692 
  58   0.0000       0.971058        26.4238 
  59   0.0000       0.971067        26.4241 
  60   0.0000       1.076426        29.2911 
  61   0.0000       1.076431        29.2912 
  62   0.0000       1.109701        30.1965 
  63   0.0000       1.165151        31.7054 
  64   0.0000       1.165155        31.7055 
  65   0.0000       1.165646        31.7188 
  66   0.0000       1.234400        33.5897 
  67   0.0000       1.248306        33.9681 
  68   0.0000       1.248309        33.9682 
  69   0.0000       1.315749        35.8033 
  70   0.0000       1.315753        35.8035 
  71   0.0000       1.335680        36.3457 
  72   0.0000       1.452539        39.5256 
  73   0.0000       1.452573        39.5265 
  74   0.0000       1.663944        45.2782 
  75   0.0000       2.128597        57.9221 
  76   0.0000       2.167297        58.9752 
  77   0.0000       2.167303        58.9753 
  78   0.0000       2.195778        59.7502 
  79   0.0000       2.216701        60.3195 
  80   0.0000       2.220479        60.4223 
  81   0.0000       2.220484        60.4224 
  82   0.0000       2.328641        63.3655 
  83   0.0000       2.328682        63.3666 
  84   0.0000       2.398480        65.2660 
  85   0.0000       2.466146        67.1072 
  86   0.0000       2.466151        67.1074 
  87   0.0000       2.591309        70.5131 
  88   0.0000       2.591319        70.5134 
  89   0.0000       2.834900        77.1416 
  90   0.0000       2.913730        79.2866 
  91   0.0000       2.937136        79.9235 
  92   0.0000       2.937173        79.9245 
  93   0.0000       3.093458        84.1773 
  94   0.0000       3.180048        86.5335 
  95   0.0000       3.185930        86.6936 
  96   0.0000       3.185973        86.6947 
  97   0.0000       3.295392        89.6722 
  98   0.0000       3.295453        89.6738 
  99   0.0000       3.398295        92.4723 
 100   0.0000       3.398318        92.4729 
 101   0.0000       3.439308        93.5883 
 102   0.0000       3.619601        98.4944 
 103   0.0000       3.619615        98.4947 
 104   0.0000       3.708977       100.9264 
 105   0.0000       3.846779       104.6762 
 106   0.0000       3.919548       106.6563 
 107   0.0000       3.967124       107.9509 
 108   0.0000       3.967192       107.9528 
 109   0.0000       4.094611       111.4200 
 110   0.0000       4.094625       111.4204 
 111   0.0000       4.194262       114.1317 
 112   0.0000       4.258447       115.8782 
 113   0.0000       4.258508       115.8799 
 114   0.0000       5.387996       146.6148 
 115   0.0000       5.388038       146.6160 
 116   0.0000       5.427349       147.6857 
 117   0.0000       6.912081       188.0873 
 118   0.0000       6.912088       188.0875 
 119   0.0000       6.913711       188.1316 
 120   0.0000       6.922042       188.3583 
 121   0.0000       6.922111       188.3602 
 122   0.0000       6.929371       188.5578 
 123   0.0000       6.933296       188.6646 
 124   0.0000       6.933349       188.6660 
 125   0.0000       6.945568       188.9985 
 126   0.0000       7.066286       192.2834 
 127   0.0000       7.066371       192.2857 
 128   0.0000       7.151750       194.6090 
 129   0.0000       7.252075       197.3390 
 130   0.0000       7.252083       197.3392 
 131   0.0000       7.255987       197.4454 
 132   0.0000       7.481427       203.5800 
 133   0.0000       7.533599       204.9996 
 134   0.0000       7.552830       205.5230 
 135   0.0000       7.552856       205.5237 
 136   0.0000       7.774633       211.5585 
 137   0.0000       7.774714       211.5607 
 138   0.0000       8.513941       231.6761 
 139   0.0000       8.513979       231.6771 
 140   0.0000       8.567272       233.1273 
 141   0.0000       8.599018       233.9912 
 142   0.0000       8.608678       234.2540 
 143   0.0000       8.608757       234.2562 
 144   0.0000       8.816028       239.8963 
 145   0.0000       8.825838       240.1633 
 146   0.0000       8.825860       240.1639 
 147   0.0000       9.000561       244.9177 
 148   0.0000       9.136847       248.6262 
 149   0.0000       9.136908       248.6279 
 150   0.0000       9.243504       251.5285 
 151   0.0000       9.406717       255.9698 
 152   0.0000       9.406758       255.9709 
 153   0.0000      22.702790       617.7743 
 154   0.0000      57.335924      1560.1898 
 155   0.0000      57.335961      1560.1908 
 156   0.0000      57.383375      1561.4810 

                 SPIN DOWN ORBITALS
  NO   OCC          E(Eh)            E(eV) 
   0   1.0000     -24.837526      -675.8634 
   1   1.0000     -24.837521      -675.8633 
   2   1.0000     -24.837506      -675.8629 
   3   1.0000     -10.537603      -286.7428 
   4   1.0000      -1.474891       -40.1338 
   5   1.0000      -1.359492       -36.9936 
   6   1.0000      -1.359483       -36.9934 
   7   1.0000      -0.820479       -22.3264 
   8   1.0000      -0.715094       -19.4587 
   9   1.0000      -0.715083       -19.4584 
  10   1.0000      -0.666501       -18.1364 
  11   1.0000      -0.594659       -16.1815 
  12   1.0000      -0.594654       -16.1813 
  13   1.0000      -0.539979       -14.6936 
  14   1.0000      -0.539969       -14.6933 
  15   1.0000      -0.523796       -14.2532 
  16   0.0000      -0.077582        -2.1111 
  17   0.0000       0.082859         2.2547 
  18   0.0000       0.108527         2.9532 
  19   0.0000       0.108527         2.9532 
  20   0.0000       0.126899         3.4531 
  21   0.0000       0.164759         4.4833 
  22   0.0000       0.164759         4.4833 
  23   0.0000       0.177935         4.8419 
  24   0.0000       0.177935         4.8419 
  25   0.0000       0.200491         5.4556 
  26   0.0000       0.238819         6.4986 
  27   0.0000       0.238822         6.4987 
  28   0.0000       0.241515         6.5720 
  29   0.0000       0.294427         8.0118 
  30   0.0000       0.361359         9.8331 
  31   0.0000       0.370060        10.0699 
  32   0.0000       0.370066        10.0700 
  33   0.0000       0.387684        10.5494 
  34   0.0000       0.387685        10.5494 
  35   0.0000       0.406327        11.0567 
  36   0.0000       0.406327        11.0567 
  37   0.0000       0.407030        11.0758 
  38   0.0000       0.430719        11.7205 
  39   0.0000       0.488342        13.2885 
  40   0.0000       0.488347        13.2886 
  41   0.0000       0.524289        14.2666 
  42   0.0000       0.571668        15.5559 
  43   0.0000       0.628249        17.0955 
  44   0.0000       0.628254        17.0956 
  45   0.0000       0.695771        18.9329 
  46   0.0000       0.695773        18.9329 
  47   0.0000       0.710234        19.3265 
  48   0.0000       0.731902        19.9161 
  49   0.0000       0.731912        19.9163 
  50   0.0000       0.739388        20.1198 
  51   0.0000       0.764110        20.7925 
  52   0.0000       0.795987        21.6599 
  53   0.0000       0.795988        21.6599 
  54   0.0000       0.874964        23.8090 
  55   0.0000       0.902094        24.5472 
  56   0.0000       0.902100        24.5474 
  57   0.0000       0.946616        25.7587 
  58   0.0000       0.978724        26.6324 
  59   0.0000       0.978735        26.6327 
  60   0.0000       1.079664        29.3792 
  61   0.0000       1.079669        29.3793 
  62   0.0000       1.113687        30.3050 
  63   0.0000       1.167024        31.7564 
  64   0.0000       1.167036        31.7567 
  65   0.0000       1.178724        32.0747 
  66   0.0000       1.237446        33.6726 
  67   0.0000       1.259286        34.2669 
  68   0.0000       1.259293        34.2671 
  69   0.0000       1.322991        36.0004 
  70   0.0000       1.323014        36.0010 
  71   0.0000       1.336042        36.3555 
  72   0.0000       1.454691        39.5841 
  73   0.0000       1.454725        39.5851 
  74   0.0000       1.718664        46.7672 
  75   0.0000       2.137822        58.1731 
  76   0.0000       2.176600        59.2283 
  77   0.0000       2.176610        59.2286 
  78   0.0000       2.199100        59.8406 
  79   0.0000       2.227910        60.6245 
  80   0.0000       2.228071        60.6289 
  81   0.0000       2.228072        60.6289 
  82   0.0000       2.333683        63.5027 
  83   0.0000       2.333721        63.5038 
  84   0.0000       2.399780        65.3013 
  85   0.0000       2.473342        67.3031 
  86   0.0000       2.473342        67.3031 
  87   0.0000       2.615125        71.1612 
  88   0.0000       2.615157        71.1620 
  89   0.0000       2.842247        77.3415 
  90   0.0000       2.919322        79.4388 
  91   0.0000       2.941926        80.0539 
  92   0.0000       2.941951        80.0545 
  93   0.0000       3.111757        84.6752 
  94   0.0000       3.200046        87.0777 
  95   0.0000       3.200082        87.0786 
  96   0.0000       3.232445        87.9593 
  97   0.0000       3.323109        90.4264 
  98   0.0000       3.323150        90.4275 
  99   0.0000       3.441526        93.6487 
 100   0.0000       3.441528        93.6487 
 101   0.0000       3.447307        93.8060 
 102   0.0000       3.639427        99.0338 
 103   0.0000       3.639433        99.0340 
 104   0.0000       3.743535       101.8668 
 105   0.0000       3.856675       104.9455 
 106   0.0000       3.926837       106.8547 
 107   0.0000       3.995662       108.7275 
 108   0.0000       3.995708       108.7288 
 109   0.0000       4.102023       111.6217 
 110   0.0000       4.102030       111.6219 
 111   0.0000       4.206260       114.4582 
 112   0.0000       4.268272       116.1456 
 113   0.0000       4.268331       116.1472 
 114   0.0000       5.397726       146.8796 
 115   0.0000       5.397731       146.8797 
 116   0.0000       5.440146       148.0339 
 117   0.0000       6.917682       188.2397 
 118   0.0000       6.917697       188.2401 
 119   0.0000       6.918634       188.2656 
 120   0.0000       6.925329       188.4478 
 121   0.0000       6.925389       188.4494 
 122   0.0000       6.934827       188.7062 
 123   0.0000       6.938520       188.8067 
 124   0.0000       6.938569       188.8081 
 125   0.0000       6.948266       189.0719 
 126   0.0000       7.071874       192.4355 
 127   0.0000       7.071953       192.4376 
 128   0.0000       7.155578       194.7132 
 129   0.0000       7.259554       197.5425 
 130   0.0000       7.259554       197.5425 
 131   0.0000       7.262705       197.6282 
 132   0.0000       7.491175       203.8452 
 133   0.0000       7.541794       205.2226 
 134   0.0000       7.559620       205.7077 
 135   0.0000       7.559639       205.7082 
 136   0.0000       7.782326       211.7679 
 137   0.0000       7.782426       211.7706 
 138   0.0000       8.521633       231.8854 
 139   0.0000       8.521668       231.8864 
 140   0.0000       8.574652       233.3281 
 141   0.0000       8.608817       234.2578 
 142   0.0000       8.618423       234.5192 
 143   0.0000       8.618503       234.5214 
 144   0.0000       8.821551       240.0466 
 145   0.0000       8.835132       240.4162 
 146   0.0000       8.835155       240.4168 
 147   0.0000       9.009674       245.1657 
 148   0.0000       9.141765       248.7601 
 149   0.0000       9.141817       248.7615 
 150   0.0000       9.249433       251.6899 
 151   0.0000       9.413347       256.1502 
 152   0.0000       9.413392       256.1514 
 153   0.0000      22.725877       618.4025 
 154   0.0000      57.338765      1560.2671 
 155   0.0000      57.338803      1560.2682 
 156   0.0000      57.386246      1561.5591 

                    ********************************
                    * MULLIKEN POPULATION ANALYSIS *
                    ********************************

--------------------------------------------
MULLIKEN ATOMIC CHARGES AND SPIN POPULATIONS
--------------------------------------------
   0 C :    0.563965    0.783973
   1 F :   -0.187981    0.072017
   2 F :   -0.187991    0.072005
   3 F :   -0.187993    0.072005
Sum of atomic charges         :   -0.0000000
Sum of atomic spin populations:    1.0000000

-----------------------------------------------------
MULLIKEN REDUCED ORBITAL CHARGES AND SPIN POPULATIONS
-----------------------------------------------------
CHARGE
  0 C s       :     3.188976  s :     3.188976
      pz      :     0.837181  p :     1.909654
      px      :     0.536221
      py      :     0.536251
      dz2     :     0.059509  d :     0.294436
      dxz     :     0.047325
      dyz     :     0.047341
      dx2y2   :     0.070133
      dxy     :     0.070129
      f0      :     0.001456  f :     0.042970
      f+1     :     0.006571
      f-1     :     0.006573
      f+2     :     0.007217
      f-2     :     0.007220
      f+3     :     0.004118
      f-3     :     0.009814
  1 F s       :     3.953143  s :     3.953143
      pz      :     1.743643  p :     5.225005
      px      :     1.554911
      py      :     1.926451
      dz2     :     0.000653  d :     0.008994
      dxz     :     0.005355
      dyz     :     0.001495
      dx2y2   :     0.004482
      dxy     :    -0.002991
      f0      :     0.000084  f :     0.000839
      f+1     :     0.000172
      f-1     :     0.000005
      f+2     :     0.000217
      f-2     :     0.000069
      f+3     :     0.000161
      f-3     :     0.000131
  2 F s       :     3.953177  s :     3.953177
      pz      :     1.743614  p :     5.224999
      px      :     1.833570
      py      :     1.647815
      dz2     :     0.000649  d :     0.008976
      dxz     :     0.002458
      dyz     :     0.004388
      dx2y2   :    -0.001125
      dxy     :     0.002606
      f0      :     0.000084  f :     0.000839
      f+1     :     0.000047
      f-1     :     0.000130
      f+2     :     0.000106
      f-2     :     0.000180
      f+3     :     0.000161
      f-3     :     0.000131
  3 F s       :     3.953179  s :     3.953179
      pz      :     1.743615  p :     5.225000
      px      :     1.833570
      py      :     1.647815
      dz2     :     0.000649  d :     0.008976
      dxz     :     0.002459
      dyz     :     0.004388
      dx2y2   :    -0.001125
      dxy     :     0.002606
      f0      :     0.000084  f :     0.000839
      f+1     :     0.000047
      f-1     :     0.000130
      f+2     :     0.000106
      f-2     :     0.000180
      f+3     :     0.000161
      f-3     :     0.000131

SPIN
  0 C s       :     0.275150  s :     0.275150
      pz      :     0.474420  p :     0.499253
      px      :     0.012416
      py      :     0.012417
      dz2     :     0.015131  d :     0.010323
      dxz     :    -0.001480
      dyz     :    -0.001480
      dx2y2   :    -0.000926
      dxy     :    -0.000922
      f0      :    -0.000053  f :    -0.000753
      f+1     :    -0.000353
      f-1     :    -0.000353
      f+2     :    -0.000196
      f-2     :    -0.000196
      f+3     :     0.000354
      f-3     :     0.000044
  1 F s       :     0.003232  s :     0.003232
      pz      :     0.071230  p :     0.067284
      px      :    -0.002740
      py      :    -0.001206
      dz2     :    -0.000033  d :     0.001470
      dxz     :     0.000784
      dyz     :    -0.000014
      dx2y2   :     0.000823
      dxy     :    -0.000090
      f0      :     0.000001  f :     0.000031
      f+1     :     0.000018
      f-1     :     0.000001
      f+2     :     0.000002
      f-2     :     0.000002
      f+3     :     0.000008
      f-3     :    -0.000000
  2 F s       :     0.003233  s :     0.003233
      pz      :     0.071199  p :     0.067266
      px      :    -0.001580
      py      :    -0.002353
      dz2     :    -0.000033  d :     0.001474
      dxz     :     0.000186
      dyz     :     0.000585
      dx2y2   :     0.000139
      dxy     :     0.000598
      f0      :     0.000001  f :     0.000031
      f+1     :     0.000005
      f-1     :     0.000014
      f+2     :     0.000002
      f-2     :     0.000002
      f+3     :     0.000008
      f-3     :    -0.000000
  3 F s       :     0.003234  s :     0.003234
      pz      :     0.071199  p :     0.067267
      px      :    -0.001580
      py      :    -0.002353
      dz2     :    -0.000033  d :     0.001474
      dxz     :     0.000186
      dyz     :     0.000585
      dx2y2   :     0.000139
      dxy     :     0.000598
      f0      :     0.000001  f :     0.000031
      f+1     :     0.000005
      f-1     :     0.000014
      f+2     :     0.000002
      f-2     :     0.000002
      f+3     :     0.000008
      f-3     :    -0.000000


                     *******************************
                     * LOEWDIN POPULATION ANALYSIS *
                     *******************************

-------------------------------------------
LOEWDIN ATOMIC CHARGES AND SPIN POPULATIONS
-------------------------------------------
   0 C :   -0.352735    0.623548
   1 F :    0.117566    0.125498
   2 F :    0.117584    0.125477
   3 F :    0.117584    0.125477

----------------------------------------------------
LOEWDIN REDUCED ORBITAL CHARGES AND SPIN POPULATIONS
----------------------------------------------------
CHARGE
  0 C s       :     2.706068  s :     2.706068
      pz      :     0.805427  p :     2.168998
      px      :     0.681769
      py      :     0.681802
      dz2     :     0.173049  d :     1.199652
      dxz     :     0.211779
      dyz     :     0.211788
      dx2y2   :     0.301518
      dxy     :     0.301517
      f0      :     0.015864  f :     0.278016
      f+1     :     0.032069
      f-1     :     0.032069
      f+2     :     0.053591
      f-2     :     0.053593
      f+3     :     0.037251
      f-3     :     0.053580
  1 F s       :     3.554026  s :     3.554026
      pz      :     1.683483  p :     5.096345
      px      :     1.625383
      py      :     1.787478
      dz2     :     0.038734  d :     0.230063
      dxz     :     0.065655
      dyz     :     0.010460
      dx2y2   :     0.043395
      dxy     :     0.071819
      f0      :     0.000174  f :     0.002000
      f+1     :     0.000495
      f-1     :     0.000006
      f+2     :     0.000485
      f-2     :     0.000154
      f+3     :     0.000327
      f-3     :     0.000359
  2 F s       :     3.554025  s :     3.554025
      pz      :     1.683488  p :     5.096334
      px      :     1.746946
      py      :     1.665900
      dz2     :     0.038733  d :     0.230057
      dxz     :     0.024258
      dyz     :     0.051855
      dx2y2   :     0.064711
      dxy     :     0.050500
      f0      :     0.000174  f :     0.002000
      f+1     :     0.000128
      f-1     :     0.000372
      f+2     :     0.000237
      f-2     :     0.000402
      f+3     :     0.000327
      f-3     :     0.000359
  3 F s       :     3.554025  s :     3.554025
      pz      :     1.683488  p :     5.096334
      px      :     1.746946
      py      :     1.665900
      dz2     :     0.038733  d :     0.230057
      dxz     :     0.024258
      dyz     :     0.051855
      dx2y2   :     0.064711
      dxy     :     0.050500
      f0      :     0.000174  f :     0.002000
      f+1     :     0.000128
      f-1     :     0.000372
      f+2     :     0.000237
      f-2     :     0.000402
      f+3     :     0.000327
      f-3     :     0.000359

SPIN
  0 C s       :     0.155295  s :     0.155295
      pz      :     0.399644  p :     0.411017
      px      :     0.005684
      py      :     0.005689
      dz2     :     0.057765  d :     0.049112
      dxz     :    -0.003686
      dyz     :    -0.003686
      dx2y2   :    -0.000642
      dxy     :    -0.000639
      f0      :     0.001203  f :     0.008125
      f+1     :    -0.000218
      f-1     :    -0.000218
      f+2     :    -0.000185
      f-2     :    -0.000186
      f+3     :     0.007726
      f-3     :     0.000003
  1 F s       :     0.014920  s :     0.014920
      pz      :     0.075815  p :     0.081016
      px      :     0.005863
      py      :    -0.000662
      dz2     :     0.009870  d :     0.029238
      dxz     :     0.018475
      dyz     :    -0.000185
      dx2y2   :     0.001079
      dxy     :    -0.000000
      f0      :    -0.000000  f :     0.000323
      f+1     :     0.000251
      f-1     :     0.000001
      f+2     :     0.000043
      f-2     :     0.000001
      f+3     :     0.000025
      f-3     :     0.000003
  2 F s       :     0.014919  s :     0.014919
      pz      :     0.075791  p :     0.080995
      px      :     0.000973
      py      :     0.004231
      dz2     :     0.009870  d :     0.029239
      dxz     :     0.004480
      dyz     :     0.013811
      dx2y2   :     0.000270
      dxy     :     0.000809
      f0      :    -0.000000  f :     0.000324
      f+1     :     0.000063
      f-1     :     0.000188
      f+2     :     0.000012
      f-2     :     0.000033
      f+3     :     0.000025
      f-3     :     0.000003
  3 F s       :     0.014919  s :     0.014919
      pz      :     0.075791  p :     0.080995
      px      :     0.000973
      py      :     0.004231
      dz2     :     0.009870  d :     0.029239
      dxz     :     0.004480
      dyz     :     0.013811
      dx2y2   :     0.000270
      dxy     :     0.000809
      f0      :    -0.000000  f :     0.000323
      f+1     :     0.000063
      f-1     :     0.000188
      f+2     :     0.000012
      f-2     :     0.000033
      f+3     :     0.000025
      f-3     :     0.000003


                      *****************************
                      * MAYER POPULATION ANALYSIS *
                      *****************************

  NA   - Mulliken gross atomic population
  ZA   - Total nuclear charge
  QA   - Mulliken gross atomic charge
  VA   - Mayer's total valence
  BVA  - Mayer's bonded valence
  FA   - Mayer's free valence

  ATOM       NA         ZA         QA         VA         BVA        FA
  0 C      5.4360     6.0000     0.5640     3.7973     3.1749     0.6224
  1 F      9.1880     9.0000    -0.1880     1.0389     1.0348     0.0041
  2 F      9.1880     9.0000    -0.1880     1.0386     1.0345     0.0041
  3 F      9.1880     9.0000    -0.1880     1.0386     1.0345     0.0041

  Mayer bond orders larger than 0.100000
B(  0-C ,  1-F ) :   1.0584 B(  0-C ,  2-F ) :   1.0582 B(  0-C ,  3-F ) :   1.0582 


-------
TIMINGS
-------

Total SCF time: 0 days 0 hours 0 min 12 sec 

Total time                  ....      12.954 sec
Sum of individual times     ....      11.840 sec  ( 91.4%)

Fock matrix formation       ....      10.013 sec  ( 77.3%)
  Split-RI-J                ....       1.417 sec  ( 14.2% of F)
  Chain of spheres X        ....       2.979 sec  ( 29.8% of F)
  XC integration            ....       1.888 sec  ( 18.9% of F)
    Basis function eval.    ....       0.113 sec  (  6.0% of XC)
    Density eval.           ....       0.147 sec  (  7.8% of XC)
    XC-Functional eval.     ....       0.062 sec  (  3.3% of XC)
    XC-Potential eval.      ....       0.290 sec  ( 15.4% of XC)
Diagonalization             ....       0.357 sec  (  2.8%)
Density matrix formation    ....       0.016 sec  (  0.1%)
Population analysis         ....       0.140 sec  (  1.1%)
Initial guess               ....       0.239 sec  (  1.8%)
Orbital Transformation      ....       0.000 sec  (  0.0%)
Orbital Orthonormalization  ....       0.000 sec  (  0.0%)
DIIS solution               ....       0.427 sec  (  3.3%)
Grid generation             ....       0.648 sec  (  5.0%)

Maximum memory used throughout the entire SCF-calculation: 63.2 MB


-------------------------------------------------------------------------------
                          DFT DISPERSION CORRECTION                            
                                                                               
                              DFTD3 V3.1  Rev 1                                
                              USING zero damping                               
-------------------------------------------------------------------------------
The omegaB97X-D3 functional is recognized. Fit by Chai et al.
Active option DFTDOPT                   ...         3   

molecular C6(AA) [au] = 165.576578 


            DFT-D V3
 parameters
 s6 scaling factor         :     1.0000 
 rs6 scaling factor        :     1.2810 
 s8 scaling factor         :     1.0000 
 rs8 scaling factor        :     1.0940 
 Damping factor alpha6     :    14.0000 
 Damping factor alpha8     :    16.0000 
 ad hoc parameters k1-k3   :    16.0000     1.3333    -4.0000 

 Edisp/kcal,au: -0.031555460303  -0.000050286822 
 E6   /kcal   :  -0.004004776 
 E8   /kcal   :  -0.027550684 
 % E8         :  87.308770018 

-------------------------   ----------------
Dispersion correction           -0.000050287
-------------------------   ----------------


-------------------------   --------------------
FINAL SINGLE POINT ENERGY      -337.605184760231
-------------------------   --------------------



           ************************************************************
           *        Program running with 18 parallel MPI-processes    *
           *              working on a common directory               *
           ************************************************************
------------------------------------------------------------------------------
                         ORCA SCF GRADIENT CALCULATION
------------------------------------------------------------------------------

 ... reading COSX grid (gridx3)
Gradient of the Kohn-Sham DFT energy:
Kohn-Sham wavefunction type      ... UKS
Hartree-Fock exchange scaling    ...    0.196
Number of operators              ...    2
Number of atoms                  ...    4
Basis set dimensions             ...  157
Integral neglect threshold       ... 2.5e-11
Integral primitive cutoff        ... 2.5e-12
SHARK Integral package           ... ON

Nuc. rep. gradient       (SHARK) ... done (  0.0 sec)
HCore & Overlap gradient (SHARK) ... done (  0.0 sec)
RI-J gradient            (SHARK) ... done (  0.2 sec)
COSX-gradient                    ... done (  0.4 sec)
Exchange-correlation gradient    ... done
Dispersion correction            ... done

------------------
CARTESIAN GRADIENT
------------------

WARNING: THERE ARE 3 CONSTRAINED CARTESIAN COORDINATES
   1   C   :   -0.000080612    0.000000031    0.098353321
   2   F   :   -0.048566457    0.000000043   -0.033061926
   3   F   :    0.024483773   -0.041600515   -0.032344956
   4   F   :    0.024483931    0.041600589   -0.032344810

Difference to translation invariance:
           :    0.0003206342    0.0000001474    0.0006016282

Difference to rotation invariance:
           :   -0.0000001519    0.0011469275    0.0000003176

Norm of the cartesian gradient     ...    0.1409882508
RMS gradient                       ...    0.0406998023
MAX gradient                       ...    0.0983533213

-------
TIMINGS
-------

Total SCF gradient time            ...        1.211 sec

One electron gradient       ....       0.014 sec  (  1.1%)
RI-J Coulomb gradient       ....       0.179 sec  ( 14.8%)
COSX gradient               ....       0.445 sec  ( 36.7%)
XC gradient                 ....       0.175 sec  ( 14.5%)

Maximum memory used throughout the entire SCFGRAD-calculation: 37.2 MB
------------------------------------------------------------------------------
                         ORCA GEOMETRY RELAXATION STEP
------------------------------------------------------------------------------

Reading the OPT-File                    .... done
Getting information on internals        .... done
Copying old internal coords+grads       .... done
Making the new internal coordinates     .... (new redundants).... done
Validating the new internal coordinates .... (new redundants).... done
Calculating the B-matrix                .... done
Calculating the G,G- and P matrices     .... done
Transforming gradient to internals      .... done
Projecting the internal gradient        .... done
Number of atoms                         ....   4
Number of internal coordinates          ....   7
Current Energy                          ....  -337.605184760 Eh
Current gradient norm                   ....     0.140988251 Eh/bohr
Maximum allowed component of the step   ....  0.300
Current trust radius                    ....  0.300
Evaluating the initial hessian          ....  (Almloef) done
Projecting the Hessian                  .... done
Forming the augmented Hessian           .... done
Diagonalizing the augmented Hessian     .... done
Last element of RFO vector              ....  0.997422110
Lowest eigenvalues of augmented Hessian:
 -0.003563316  0.684895726  0.684895726  0.688459042 1000.000000000
Length of the computed step             ....  0.071942930
The final length of the internal step   ....  0.071942930
Converting the step to cartesian space:
 Initial RMS(Int)=    0.0271918716
Transforming coordinates:
 Iter   0:  RMS(Cart)=    0.0191436696 RMS(Int)=    0.0271918721
 Iter   1:  RMS(Cart)=    0.0000000013 RMS(Int)=    0.0000000022
Imposing constraints:
 Iter   0:  RMS(Cart)=    0.0000000003 RMS(Int)=    0.0000000004
CONVERGED
done
Storing new coordinates                 .... done

                                .--------------------.
          ----------------------|Geometry convergence|-------------------------
          Item                value                   Tolerance       Converged
          ---------------------------------------------------------------------
          RMS gradient        0.0187204899            0.0001000000      NO
          MAX gradient        0.0287573679            0.0003000000      NO
          RMS step            0.0271918716            0.0020000000      NO
          MAX step            0.0417706301            0.0040000000      NO
          ........................................................
          Max(Bonds)      0.0221      Max(Angles)    0.00
          Max(Dihed)        0.00      Max(Improp)    0.00
          ---------------------------------------------------------------------

The optimization has not yet converged - more geometry cycles are needed


    ---------------------------------------------------------------------------
                         Redundant Internal Coordinates
                            (Angstroem and degrees)

        Definition                    Value    dE/dq     Step     New-Value
    ----------------------------------------------------------------------------
     1. B(F   1,C   0)                1.3150 -0.028757  0.0221    1.3371   
     2. B(F   2,C   0)                1.3150 -0.028515  0.0219    1.3369   
     3. B(F   3,C   0)                1.3150 -0.028515  0.0219    1.3369   
     4. A(F   2,C   0,F   3)          101.50 -0.086205   -0.00    101.50 C 
     5. A(F   1,C   0,F   2)          101.50 -0.038325   -0.00    101.50 C 
     6. A(F   1,C   0,F   3)          101.50 -0.038325    0.00    101.50 C 
     7. I(F   1,F   3,F   2,C   0)     71.63  0.080059    0.00     71.63   
    ----------------------------------------------------------------------------

         *************************************************************
         *                GEOMETRY OPTIMIZATION CYCLE   2            *
         *************************************************************
---------------------------------
CARTESIAN COORDINATES (ANGSTROEM)
---------------------------------
  C     -0.000056    0.000000    0.007380
  F      1.195590    0.000000   -0.591184
  F     -0.597767    1.035299   -0.591156
  F     -0.597767   -1.035299   -0.591156

----------------------------
CARTESIAN COORDINATES (A.U.)
----------------------------
  NO LB      ZA    FRAG     MASS         X           Y           Z
   0 C     6.0000    0    12.011   -0.000105    0.000000    0.013946
   1 F     9.0000    0    18.998    2.259338    0.000000   -1.117175
   2 F     9.0000    0    18.998   -1.129617    1.956432   -1.117123
   3 F     9.0000    0    18.998   -1.129617   -1.956432   -1.117123

--------------------------------
INTERNAL COORDINATES (ANGSTROEM)
--------------------------------
 C      0   0   0     0.000000000000     0.00000000     0.00000000
 F      1   0   0     1.337104065424     0.00000000     0.00000000
 F      1   2   0     1.336917739463   101.49999998     0.00000000
 F      1   2   3     1.336917811043   101.49999998   104.41912474

---------------------------
INTERNAL COORDINATES (A.U.)
---------------------------
 C      0   0   0     0.000000000000     0.00000000     0.00000000
 F      1   0   0     2.526760496204     0.00000000     0.00000000
 F      1   2   0     2.526408391165   101.49999998     0.00000000
 F      1   2   3     2.526408526433   101.49999998   104.41912474



           ************************************************************
           *        Program running with 18 parallel MPI-processes    *
           *              working on a common directory               *
           ************************************************************
------------------------------------------------------------------------------
                   ___                                                        
                  /   \      - P O W E R E D   B Y -                         
                 /     \                                                     
                 |  |  |   _    _      __       _____    __    __             
                 |  |  |  | |  | |    /  \     |  _  \  |  |  /  |          
                  \  \/   | |  | |   /    \    | | | |  |  | /  /          
                 / \  \   | |__| |  /  /\  \   | |_| |  |  |/  /          
                |  |  |   |  __  | /  /__\  \  |    /   |      \           
                |  |  |   | |  | | |   __   |  |    \   |  |\   \          
                \     /   | |  | | |  |  |  |  | |\  \  |  | \   \       
                 \___/    |_|  |_| |__|  |__|  |_| \__\ |__|  \__/        
                                                                              
                      - O R C A' S   B I G   F R I E N D -                    
                                      &                                       
                       - I N T E G R A L  F E E D E R -                       
                                                                              
 v1 FN, 2020, v2 2021                                                         
------------------------------------------------------------------------------


Reading SHARK input file /beegfs/scratch/ispackman/PFAS_EPR_calcs/benchmark/JChemEd_CF3_radical/CF3_radical_101.5_degrees_IN-PROGRESS/CF3_radical_101.5_degrees.SHARKINP.tmp ... ok
----------------------
SHARK INTEGRAL PACKAGE
----------------------

Number of atoms                             ...      4
Number of basis functions                   ...    157
Number of shells                            ...     55
Maximum angular momentum                    ...      3
Integral batch strategy                     ... SHARK/LIBINT Hybrid
RI-J (if used) integral strategy            ... SPLIT-RIJ (Revised 2003 algorithm where possible)
Printlevel                                  ...      1
Contraction scheme used                     ... SEGMENTED contraction
Coulomb Range Separation                    ... NOT USED
Exchange Range Separation                   ... Long Range
   Mu parameter                             ...  0.250000
   Scaling (regular/separated)              ...  0.195728  0.804272
Finite Nucleus Model                        ... NOT USED
Auxiliary Coulomb fitting basis             ... AVAILABLE
   # of basis functions in Aux-J            ...    196
   # of shells in Aux-J                     ...     60
   Maximum angular momentum in Aux-J        ...      4
Auxiliary J/K fitting basis                 ... NOT available
Auxiliary Correlation fitting basis         ... NOT available
Auxiliary 'external' fitting basis          ... NOT available
Integral threshold                          ...     2.500000e-11
Primitive cut-off                           ...     2.500000e-12
Primitive pair pre-selection threshold      ...     2.500000e-12

Calculating pre-screening integrals         ... done (  0.0 sec) Dimension = 55
Organizing shell pair data                  ... done (  0.0 sec)
Shell pair information
Total number of shell pairs                 ...      1540
Shell pairs after pre-screening             ...      1504
Total number of primitive shell pairs       ...      4274
Primitive shell pairs kept                  ...      3539
          la=0 lb=0:    282 shell pairs
          la=1 lb=0:    354 shell pairs
          la=1 lb=1:    120 shell pairs
          la=2 lb=0:    276 shell pairs
          la=2 lb=1:    180 shell pairs
          la=2 lb=2:     78 shell pairs
          la=3 lb=0:     96 shell pairs
          la=3 lb=1:     60 shell pairs
          la=3 lb=2:     48 shell pairs
          la=3 lb=3:     10 shell pairs

Calculating one electron integrals          ... done (  0.0 sec)
Calculating RI/J V-Matrix + Cholesky decomp.... done (  0.0 sec)
Calculating Nuclear repulsion               ... done (  0.0 sec) ENN=    126.219629994386 Eh

SHARK setup successfully completed in   0.3 seconds

Maximum memory used throughout the entire GTOINT-calculation: 15.2 MB


           ************************************************************
           *        Program running with 18 parallel MPI-processes    *
           *              working on a common directory               *
           ************************************************************

Diagonalization of the overlap matrix:
Smallest eigenvalue                        ... 3.993e-04
Time for diagonalization                   ...    0.008 sec
Threshold for overlap eigenvalues          ... 1.000e-08
Number of eigenvalues below threshold      ... 0
Time for construction of square roots      ...    0.019 sec
Total time needed                          ...    0.028 sec

-------------------
DFT GRID GENERATION
-------------------

General Integration Accuracy     IntAcc      ... 4.388
Radial Grid Type                 RadialGrid  ... OptM3 with GC (2021)
Angular Grid (max. ang.)         AngularGrid ... 4 (Lebedev-302)
Angular grid pruning method      GridPruning ... 4 (adaptive)
Weight generation scheme         WeightScheme... Becke
Basis function cutoff            BFCut       ... 1.0000e-11
Integration weight cutoff        WCut        ... 1.0000e-14
Angular grids for H and He will be reduced by one unit
Partially contracted basis set               ... off
Rotationally invariant grid construction     ... off

Total number of grid points                  ...    25783
Total number of batches                      ...      405
Average number of points per batch           ...       63
Average number of grid points per atom       ...     6446
Time for grid setup =    0.152 sec

--------------------
COSX GRID GENERATION
--------------------

GRIDX 1
-------
General Integration Accuracy     IntAcc      ... 3.816
Radial Grid Type                 RadialGrid  ... OptM3 with GC (2021)
Angular Grid (max. ang.)         AngularGrid ... 1 (Lebedev-50)
Angular grid pruning method      GridPruning ... 4 (adaptive)
Weight generation scheme         WeightScheme... Becke
Basis function cutoff            BFCut       ... 1.0000e-11
Integration weight cutoff        WCut        ... 1.0000e-14
Angular grids for H and He will be reduced by one unit
Partially contracted basis set               ... on
Rotationally invariant grid construction     ... off

Total number of grid points                  ...     3272
Total number of batches                      ...       53
Average number of points per batch           ...       61
Average number of grid points per atom       ...      818
UseSFitting                                  ... on

GRIDX 2
-------
General Integration Accuracy     IntAcc      ... 4.020
Radial Grid Type                 RadialGrid  ... OptM3 with GC (2021)
Angular Grid (max. ang.)         AngularGrid ... 2 (Lebedev-110)
Angular grid pruning method      GridPruning ... 4 (adaptive)
Weight generation scheme         WeightScheme... Becke
Basis function cutoff            BFCut       ... 1.0000e-11
Integration weight cutoff        WCut        ... 1.0000e-14
Angular grids for H and He will be reduced by one unit
Partially contracted basis set               ... on
Rotationally invariant grid construction     ... off

Total number of grid points                  ...     9119
Total number of batches                      ...      145
Average number of points per batch           ...       62
Average number of grid points per atom       ...     2280
UseSFitting                                  ... on

GRIDX 3
-------
General Integration Accuracy     IntAcc      ... 4.338
Radial Grid Type                 RadialGrid  ... OptM3 with GC (2021)
Angular Grid (max. ang.)         AngularGrid ... 3 (Lebedev-194)
Angular grid pruning method      GridPruning ... 4 (adaptive)
Weight generation scheme         WeightScheme... Becke
Basis function cutoff            BFCut       ... 1.0000e-11
Integration weight cutoff        WCut        ... 1.0000e-14
Angular grids for H and He will be reduced by one unit
Partially contracted basis set               ... on
Rotationally invariant grid construction     ... off

Total number of grid points                  ...    19677
Total number of batches                      ...      309
Average number of points per batch           ...       63
Average number of grid points per atom       ...     4919
UseSFitting                                  ... on

Time for X-Grid setup             =    0.367 sec

--------------
[...]
  VA   - Mayer's total valence
  BVA  - Mayer's bonded valence
  FA   - Mayer's free valence

  ATOM       NA         ZA         QA         VA         BVA        FA
  0 C      5.4591     6.0000     0.5409     3.7883     3.1735     0.6148
  1 F      9.1804     9.0000    -0.1804     1.0465     1.0418     0.0047
  2 F      9.1803     9.0000    -0.1803     1.0465     1.0419     0.0046
  3 F      9.1803     9.0000    -0.1803     1.0465     1.0419     0.0046

  Mayer bond orders larger than 0.100000
B(  0-C ,  1-F ) :   1.0577 B(  0-C ,  2-F ) :   1.0579 B(  0-C ,  3-F ) :   1.0579 


-------
TIMINGS
-------

Total SCF time: 0 days 0 hours 0 min 6 sec 

Total time                  ....       6.980 sec
Sum of individual times     ....       6.208 sec  ( 88.9%)

Fock matrix formation       ....       5.152 sec  ( 73.8%)
  Split-RI-J                ....       0.705 sec  ( 13.7% of F)
  Chain of spheres X        ....       1.988 sec  ( 38.6% of F)
  XC integration            ....       0.958 sec  ( 18.6% of F)
    Basis function eval.    ....       0.066 sec  (  6.9% of XC)
    Density eval.           ....       0.084 sec  (  8.7% of XC)
    XC-Functional eval.     ....       0.036 sec  (  3.8% of XC)
    XC-Potential eval.      ....       0.135 sec  ( 14.0% of XC)
Diagonalization             ....       0.181 sec  (  2.6%)
Density matrix formation    ....       0.009 sec  (  0.1%)
Population analysis         ....       0.120 sec  (  1.7%)
Initial guess               ....       0.017 sec  (  0.2%)
Orbital Transformation      ....       0.000 sec  (  0.0%)
Orbital Orthonormalization  ....       0.008 sec  (  0.1%)
DIIS solution               ....       0.193 sec  (  2.8%)
Grid generation             ....       0.536 sec  (  7.7%)

Maximum memory used throughout the entire SCF-calculation: 63.2 MB


-------------------------------------------------------------------------------
                          DFT DISPERSION CORRECTION                            
                                                                               
                              DFTD3 V3.1  Rev 1                                
                              USING zero damping                               
-------------------------------------------------------------------------------
The omegaB97X-D3 functional is recognized. Fit by Chai et al.
Active option DFTDOPT                   ...         3   

molecular C6(AA) [au] = 165.646204 


            DFT-D V3
 parameters
 s6 scaling factor         :     1.0000 
 rs6 scaling factor        :     1.2810 
 s8 scaling factor         :     1.0000 
 rs8 scaling factor        :     1.0940 
 Damping factor alpha6     :    14.0000 
 Damping factor alpha8     :    16.0000 
 ad hoc parameters k1-k3   :    16.0000     1.3333    -4.0000 

 Edisp/kcal,au: -0.036834961430  -0.000058700241 
 E6   /kcal   :  -0.004681867 
 E8   /kcal   :  -0.032153095 
 % E8         :  87.289611689 

-------------------------   ----------------
Dispersion correction           -0.000058700
-------------------------   ----------------


-------------------------   --------------------
FINAL SINGLE POINT ENERGY      -337.607180543270
-------------------------   --------------------

                                *** OPTIMIZATION RUN DONE ***

                            ***************************************
                            *     ORCA property calculations      *
                            ***************************************

                                    ---------------------
                                    Active property flags
                                    ---------------------
   (+) Dipole Moment


------------------------------------------------------------------------------
                       ORCA ELECTRIC PROPERTIES CALCULATION
------------------------------------------------------------------------------

Dipole Moment Calculation                       ... on
Quadrupole Moment Calculation                   ... off
Polarizability Calculation                      ... off
GBWName                                         ... /beegfs/scratch/ispackman/PFAS_EPR_calcs/benchmark/JChemEd_CF3_radical/CF3_radical_101.5_degrees_IN-PROGRESS/CF3_radical_101.5_degrees.gbw
Electron density                                ... /beegfs/scratch/ispackman/PFAS_EPR_calcs/benchmark/JChemEd_CF3_radical/CF3_radical_101.5_degrees_IN-PROGRESS/CF3_radical_101.5_degrees.scfp
The origin for moment calculation is the CENTER OF MASS  = ( 0.000021,  0.000000 -0.920515)

-------------
DIPOLE MOMENT
-------------
                                X             Y             Z
Electronic contribution:     -0.00073      -0.00000       0.08923
Nuclear contribution   :     -0.00007      -0.00000       0.29043
                        -----------------------------------------
Total Dipole Moment    :     -0.00080      -0.00000       0.37967
                        -----------------------------------------
Magnitude (a.u.)       :      0.37967
Magnitude (Debye)      :      0.96504



--------------------
Rotational spectrum 
--------------------
 
Rotational constants in cm-1:     0.378523     0.378393     0.205741 
Rotational constants in MHz : 11347.838941 11343.943035  6167.962242 

 Dipole components along the rotational axes: 
x,y,z [a.u.] :    -0.000823     0.000000     0.379668 
x,y,z [Debye]:    -0.002093     0.000001     0.965039 

 


           ************************************************************
           *        Program running with 18 parallel MPI-processes    *
           *              working on a common directory               *
           ************************************************************

-------------------------------------------------------------------------------
                               ORCA SCF HESSIAN
-------------------------------------------------------------------------------

                   --------- SHARK INITIALIZATION DONE ---------

Hessian of the Kohn-Sham DFT energy:
Kohn-Sham wavefunction type                      ... UKS
Hartree-Fock exchange scaling                    ...    0.196
Number of operators                              ...    2
Number of atoms                                  ...    4
Basis set dimensions                             ...  157
Integral neglect threshold                       ... 2.5e-11
Integral primitive cutoff                        ... 2.5e-12

Setting up DFT Hessian calculations              ... 

HESS GRID
---------

General Integration Accuracy     IntAcc      ... 4.629
Radial Grid Type                 RadialGrid  ... OptM3 with GC (2021)
Angular Grid (max. ang.)         AngularGrid ... 5 (Lebedev-434)
Angular grid pruning method      GridPruning ... 4 (adaptive)
Weight generation scheme         WeightScheme... Becke
Basis function cutoff            BFCut       ... 1.0000e-11
Integration weight cutoff        WCut        ... 1.0000e-14
Angular grids for H and He will be reduced by one unit
Partially contracted basis set               ... off
Rotationally invariant grid construction     ... off

Total number of grid points                  ...    39973
Total number of batches                      ...      627
Average number of points per batch           ...       63
Average number of grid points per atom       ...     9993

Building densities                               ... done   (      0.0 sec)
Calculating rho(r) on the grid                   ... done   (      0.1 sec)
Building xc-kernel on the grid                   ... done   (      0.1 sec)
                                                     done   (      0.6 sec)

Nuclear repulsion Hessian  (SHARK)               ... done   (      0.0 sec)

----------------------------------------------
Forming right-hand sides of CP-SCF equations     ...
----------------------------------------------
One electron integral derivatives  (SHARK)       ... done   (      0.0 sec)
Transforming the overlap derivative matrices     ... done   (      0.0 sec)
Making the Q(x) pseudodensities                  ... done   (      0.0 sec)
Adding the E*S(x)*S(y) terms to the Hessian      ... done   (      0.0 sec)
Calculating energy weighted overlap derivatives  ... done   (      0.1 sec)
Two electron integral derivatives (SHARK-RI)     ... done   (      2.5 sec)
Exchange-correlation integral derivatives        ... done   (      2.3 sec)
tr(F(y)Q(x)) contribution to the Hessian         ... done   (      0.0 sec)
Response fock operator R(S(x)) (SHARK-RIJCOSX)   ... done   (      0.9 sec)
XC Response fock operator R(S(x))                ... done   (      0.4 sec)
tr(F(y)S(x)) contribution to the Hessian         ... done   (      0.0 sec)
Transforming and finalizing RHSs                 ... done   (      0.0 sec)

----------------------------------------------
Solving the CP-SCF equations (RIJCOSX)           ...
----------------------------------------------
     CP-SCF ITERATION   0:   1.5977e-01 (   0.5 sec   0/ 12 done)
     CP-SCF ITERATION   1:   5.0827e-02 (   0.5 sec   0/ 12 done)
     CP-SCF ITERATION   2:   1.8434e-02 (   0.4 sec   0/ 12 done)
     CP-SCF ITERATION   3:   5.2924e-03 (   0.5 sec   0/ 12 done)
     CP-SCF ITERATION   4:   1.9302e-03 (   0.5 sec   0/ 12 done)
     CP-SCF ITERATION   5:   7.9834e-04 (   0.4 sec   1/ 12 done)
     CP-SCF ITERATION   6:   2.3374e-04 (   0.4 sec   3/ 12 done)
     CP-SCF ITERATION   7:   5.2226e-05 (   0.4 sec  12/ 12 done)
                    *** THE CP-SCF HAS CONVERGED ***

                                                 ... done   (      4.0 sec)
Forming perturbed density Hessian contributions  ... done   (      0.0 sec)
2nd integral derivative contribs (SHARK-RI)      ... done   (      6.6 sec)
Exchange-correlation Hessian                     ... done   (      0.9 sec)
Dispersion correction in the Hessian             ... done   (      0.1 sec)
Dipole derivatives                               ... (center of mass:  0.000021,  0.000000 -0.920515)done   (      0.1 sec)

Total SCF Hessian time: 0 days 0 hours 0 min 19 sec 

Writing the Hessian file to the disk             ... done


Maximum memory used throughout the entire SCFHESS-calculation: 144.9 MB

-----------------------
VIBRATIONAL FREQUENCIES
-----------------------

Scaling factor for frequencies =  1.000000000  (already applied!)

   0:         0.00 cm**-1
   1:         0.00 cm**-1
   2:         0.00 cm**-1
   3:         0.00 cm**-1
   4:         0.00 cm**-1
   5:         0.00 cm**-1
   6:       571.31 cm**-1
   7:       572.02 cm**-1
   8:       770.56 cm**-1
   9:      1098.46 cm**-1
  10:      1099.79 cm**-1
  11:      1105.21 cm**-1


------------
NORMAL MODES
------------

These modes are the Cartesian displacements weighted by the diagonal matrix
M(i,i)=1/sqrt(m[i]) where m[i] is the mass of the displaced atom
Thus, these vectors are normalized but *not* orthogonal

                  0          1          2          3          4          5    
      0       0.000000   0.000000   0.000000   0.000000   0.000000   0.000000
      1       0.000000   0.000000   0.000000   0.000000   0.000000   0.000000
      2       0.000000   0.000000   0.000000   0.000000   0.000000   0.000000
      3       0.000000   0.000000   0.000000   0.000000   0.000000   0.000000
      4       0.000000   0.000000   0.000000   0.000000   0.000000   0.000000
      5       0.000000   0.000000   0.000000   0.000000   0.000000   0.000000
      6       0.000000   0.000000   0.000000   0.000000   0.000000   0.000000
      7       0.000000   0.000000   0.000000   0.000000   0.000000   0.000000
      8       0.000000   0.000000   0.000000   0.000000   0.000000   0.000000
      9       0.000000   0.000000   0.000000   0.000000   0.000000   0.000000
     10       0.000000   0.000000   0.000000   0.000000   0.000000   0.000000
     11       0.000000   0.000000   0.000000   0.000000   0.000000   0.000000
                  6          7          8          9         10         11    
      0      -0.304226   0.000020  -0.000424  -0.882446   0.000367   0.089605
      1       0.000021   0.303805  -0.000000   0.000373   0.886681   0.000039
      2      -0.000962   0.000001  -0.569119   0.081250  -0.000069   0.831032
      3      -0.479938   0.000032   0.459991   0.348039  -0.000156   0.229755
      4      -0.000041  -0.608403  -0.000000  -0.000021  -0.049583  -0.000002
      5      -0.063972   0.000004   0.119803  -0.203319   0.000092  -0.156190
      6       0.336107  -0.471570  -0.229862   0.104982   0.118829  -0.143197
      7       0.471686   0.208133   0.397293  -0.096678  -0.255468   0.239784
      8       0.032294   0.055537   0.120004   0.076044   0.162026  -0.184597
      9       0.336170   0.471525  -0.229862   0.104882  -0.118905  -0.143208
     10      -0.471658   0.208197  -0.397293   0.096463  -0.255529  -0.239807
     11       0.032286  -0.055542   0.120004   0.075907  -0.162074  -0.184611


-----------
IR SPECTRUM
-----------

 Mode   freq       eps      Int      T**2         TX        TY        TZ
       cm**-1   L/(mol*cm) km/mol    a.u.
----------------------------------------------------------------------------
  6:    571.31   0.000295    1.49  0.000161  (-0.012694  0.000001 -0.000067)
  7:    572.02   0.000292    1.48  0.000159  ( 0.000001  0.012628  0.000000)
  8:    770.56   0.002548   12.88  0.001032  (-0.000108 -0.000000 -0.032123)
  9:   1098.46   0.061936  313.00  0.017596  (-0.132550  0.000056  0.005104)
 10:   1099.79   0.062411  315.40  0.017709  ( 0.000055  0.133075 -0.000004)
 11:   1105.21   0.009874   49.90  0.002788  ( 0.013132  0.000006  0.051141)

* The epsilon (eps) is given for a Dirac delta lineshape.
** The dipole moment derivative (T) already includes vibrational overlap.

The first frequency considered to be a vibration is 6
The total number of vibrations considered is 6


--------------------------
THERMOCHEMISTRY AT 298.15K
--------------------------

Temperature         ... 298.15 K
Pressure            ... 1.00 atm
Total Mass          ... 69.00 AMU

Throughout the following assumptions are being made:
  (1) The electronic state is orbitally nondegenerate
      but the spin degeneracy is treated
  (2) There are no thermally accessible electronically excited states
  (3) Hindered rotations indicated by low frequency modes are not
      treated as such but are treated as vibrations and this may
      cause some error
  (4) All equations used are the standard statistical mechanics
      equations for an ideal gas
  (5) All vibrations are strictly harmonic

freq.     571.31  E(vib)   ...       0.11 
freq.     572.02  E(vib)   ...       0.11 
freq.     770.56  E(vib)   ...       0.05 
freq.    1098.46  E(vib)   ...       0.02 
freq.    1099.79  E(vib)   ...       0.02 
freq.    1105.21  E(vib)   ...       0.02 

------------
INNER ENERGY
------------

The inner energy is: U= E(el) + E(ZPE) + E(vib) + E(rot) + E(trans)
    E(el)   - is the total energy from the electronic structure calculation
              = E(kin-el) + E(nuc-el) + E(el-el) + E(nuc-nuc)
    E(ZPE)  - the the zero temperature vibrational energy from the frequency calculation
    E(vib)  - the the finite temperature correction to E(ZPE) due to population
              of excited vibrational states
    E(rot)  - is the rotational thermal energy
    E(trans)- is the translational thermal energy

Summary of contributions to the inner energy U:
Electronic energy                ...   -337.60718054 Eh
Zero point energy                ...      0.01188601 Eh       7.46 kcal/mol
Thermal vibrational correction   ...      0.00051434 Eh       0.32 kcal/mol
Thermal rotational correction    ...      0.00141627 Eh       0.89 kcal/mol
Thermal translational correction ...      0.00141627 Eh       0.89 kcal/mol
-----------------------------------------------------------------------
Total thermal energy                   -337.59194765 Eh


Summary of corrections to the electronic energy:
(perhaps to be used in another calculation)
Total thermal correction                  0.00334688 Eh       2.10 kcal/mol
Non-thermal (ZPE) correction              0.01188601 Eh       7.46 kcal/mol
-----------------------------------------------------------------------
Total correction                          0.01523289 Eh       9.56 kcal/mol


--------
ENTHALPY
--------

The enthalpy is H = U + kB*T
                kB is Boltzmann's constant
Total free energy                 ...   -337.59194765 Eh 
Thermal Enthalpy correction       ...      0.00094421 Eh       0.59 kcal/mol
-----------------------------------------------------------------------
Total Enthalpy                    ...   -337.59100344 Eh


Note: Rotational entropy computed according to Herzberg 
Infrared and Raman Spectra, Chapter V,1, Van Nostrand Reinhold, 1945 
Point Group:  Cs, Symmetry Number:   1  
Rotational constants in cm-1:     0.378523     0.378393     0.205741 

Vibrational entropy computed according to the QRRHO of S. Grimme
Chem.Eur.J. 2012 18 9955


-------
ENTROPY
-------

The entropy contributions are T*S = T*(S(el)+S(vib)+S(rot)+S(trans))
     S(el)   - electronic entropy
     S(vib)  - vibrational entropy
     S(rot)  - rotational entropy
     S(trans)- translational entropy
The entropies will be listed as multiplied by the temperature to get
units of energy

Electronic entropy                ...      0.00065446 Eh      0.41 kcal/mol
Vibrational entropy               ...      0.00067582 Eh      0.42 kcal/mol
Rotational entropy                ...      0.01117466 Eh      7.01 kcal/mol
Translational entropy             ...      0.01834582 Eh     11.51 kcal/mol
-----------------------------------------------------------------------
Final entropy term                ...      0.03085076 Eh     19.36 kcal/mol

In case the symmetry of your molecule has not been determined correctly
or in case you have a reason to use a different symmetry number we print 
out the resulting rotational entropy values for sn=1,12 :
 --------------------------------------------------------
|  sn= 1 | S(rot)=       0.01117466 Eh      7.01 kcal/mol|
|  sn= 2 | S(rot)=       0.01052021 Eh      6.60 kcal/mol|
|  sn= 3 | S(rot)=       0.01013737 Eh      6.36 kcal/mol|
|  sn= 4 | S(rot)=       0.00986575 Eh      6.19 kcal/mol|
|  sn= 5 | S(rot)=       0.00965506 Eh      6.06 kcal/mol|
|  sn= 6 | S(rot)=       0.00948292 Eh      5.95 kcal/mol|
|  sn= 7 | S(rot)=       0.00933737 Eh      5.86 kcal/mol|
|  sn= 8 | S(rot)=       0.00921129 Eh      5.78 kcal/mol|
|  sn= 9 | S(rot)=       0.00910009 Eh      5.71 kcal/mol|
|  sn=10 | S(rot)=       0.00900061 Eh      5.65 kcal/mol|
|  sn=11 | S(rot)=       0.00891062 Eh      5.59 kcal/mol|
|  sn=12 | S(rot)=       0.00882846 Eh      5.54 kcal/mol|
 --------------------------------------------------------


-------------------
GIBBS FREE ENERGY
-------------------

The Gibbs free energy is G = H - T*S

Total enthalpy                    ...   -337.59100344 Eh 
Total entropy correction          ...     -0.03085076 Eh    -19.36 kcal/mol
-----------------------------------------------------------------------
Final Gibbs free energy         ...   -337.62185420 Eh

For completeness - the Gibbs free energy minus the electronic energy
G-E(el)                           ...     -0.01467366 Eh     -9.21 kcal/mol


Timings for individual modules:

Sum of individual times         ...       95.136 sec (=   1.586 min)
GTO integral calculation        ...       12.527 sec (=   0.209 min)  13.2 %
SCF iterations                  ...       48.452 sec (=   0.808 min)  50.9 %
SCF Gradient evaluation         ...       12.178 sec (=   0.203 min)  12.8 %
Geometry relaxation             ...        0.174 sec (=   0.003 min)   0.2 %
Analytical frequency calculation...       21.805 sec (=   0.363 min)  22.9 %
                             ****ORCA TERMINATED NORMALLY****
TOTAL RUN TIME: 0 days 0 hours 1 minutes 46 seconds 573 msec

slurmID:    32260043
totalRuntime[s]:    106.612019361
