
                                 *****************
                                 * O   R   C   A *
                                 *****************

                                            #,                                       
                                            ###                                      
                                            ####                                     
                                            #####                                    
                                            ######                                   
                                           ########,                                 
                                     ,,################,,,,,                         
                               ,,#################################,,                 
                          ,,##########################################,,             
                       ,#########################################, ''#####,          
                    ,#############################################,,   '####,        
                  ,##################################################,,,,####,       
                ,###########''''           ''''###############################       
              ,#####''   ,,,,##########,,,,          '''####'''          '####       
            ,##' ,,,,###########################,,,                        '##       
           ' ,,###''''                  '''############,,,                           
         ,,##''                                '''############,,,,        ,,,,,,###''
      ,#''                                            '''#######################'''  
     '                                                          ''''####''''         
             ,#######,   #######,   ,#######,      ##                                
            ,#'     '#,  ##    ##  ,#'     '#,    #''#        ######   ,####,        
            ##       ##  ##   ,#'  ##            #'  '#       #        #'  '#        
            ##       ##  #######   ##           ,######,      #####,   #    #        
            '#,     ,#'  ##    ##  '#,     ,#' ,#      #,         ##   #,  ,#        
             '#######'   ##     ##  '#######'  #'      '#     #####' # '####'        



                  #######################################################
                  #                        -***-                        #
                  #          Department of theory and spectroscopy      #
                  #    Directorship and core code : Frank Neese         #
                  #        Max Planck Institute fuer Kohlenforschung    #
                  #                Kaiser Wilhelm Platz 1               #
                  #                 D-45470 Muelheim/Ruhr               #
                  #                      Germany                        #
                  #                                                     #
                  #                  All rights reserved                #
                  #                        -***-                        #
                  #######################################################


                         Program Version 5.0.4 -  RELEASE  -


 With contributions from (in alphabetic order):
   Daniel Aravena         : Magnetic Suceptibility
   Michael Atanasov       : Ab Initio Ligand Field Theory (pilot matlab implementation)
   Alexander A. Auer      : GIAO ZORA, VPT2 properties, NMR spectrum
   Ute Becker             : Parallelization
   Giovanni Bistoni       : ED, misc. LED, open-shell LED, HFLD
   Martin Brehm           : Molecular dynamics
   Dmytro Bykov           : SCF Hessian
   Vijay G. Chilkuri      : MRCI spin determinant printing, contributions to CSF-ICE
   Dipayan Datta          : RHF DLPNO-CCSD density
   Achintya Kumar Dutta   : EOM-CC, STEOM-CC
   Dmitry Ganyushin       : Spin-Orbit,Spin-Spin,Magnetic field MRCI
   Miquel Garcia          : C-PCM and meta-GGA Hessian, CC/C-PCM, Gaussian charge scheme
   Yang Guo               : DLPNO-NEVPT2, F12-NEVPT2, CIM, IAO-localization
   Andreas Hansen         : Spin unrestricted coupled pair/coupled cluster methods
   Benjamin Helmich-Paris : MC-RPA, TRAH-SCF, COSX integrals
   Lee Huntington         : MR-EOM, pCC
   Robert Izsak           : Overlap fitted RIJCOSX, COSX-SCS-MP3, EOM
   Marcus Kettner         : VPT2
   Christian Kollmar      : KDIIS, OOCD, Brueckner-CCSD(T), CCSD density, CASPT2, CASPT2-K
   Simone Kossmann        : Meta GGA functionals, TD-DFT gradient, OOMP2, MP2 Hessian
   Martin Krupicka        : Initial AUTO-CI
   Lucas Lang             : DCDCAS
   Marvin Lechner         : AUTO-CI (C++ implementation), FIC-MRCC
   Dagmar Lenk            : GEPOL surface, SMD
   Dimitrios Liakos       : Extrapolation schemes; Compound Job, initial MDCI parallelization
   Dimitrios Manganas     : Further ROCIS development; embedding schemes
   Dimitrios Pantazis     : SARC Basis sets
   Anastasios Papadopoulos: AUTO-CI, single reference methods and gradients
   Taras Petrenko         : DFT Hessian,TD-DFT gradient, ASA, ECA, R-Raman, ABS, FL, XAS/XES, NRVS
   Peter Pinski           : DLPNO-MP2, DLPNO-MP2 Gradient
   Christoph Reimann      : Effective Core Potentials
   Marius Retegan         : Local ZFS, SOC
   Christoph Riplinger    : Optimizer, TS searches, QM/MM, DLPNO-CCSD(T), (RO)-DLPNO pert. Triples
   Tobias Risthaus        : Range-separated hybrids, TD-DFT gradient, RPA, STAB
   Michael Roemelt        : Original ROCIS implementation
   Masaaki Saitow         : Open-shell DLPNO-CCSD energy and density
   Barbara Sandhoefer     : DKH picture change effects
   Avijit Sen             : IP-ROCIS
   Kantharuban Sivalingam : CASSCF convergence, NEVPT2, FIC-MRCI
   Bernardo de Souza      : ESD, SOC TD-DFT
   Georgi Stoychev        : AutoAux, RI-MP2 NMR, DLPNO-MP2 response
   Willem Van den Heuvel  : Paramagnetic NMR
   Boris Wezisla          : Elementary symmetry handling
   Frank Wennmohs         : Technical directorship


 We gratefully acknowledge several colleagues who have allowed us to
 interface, adapt or use parts of their codes:
   Stefan Grimme, W. Hujo, H. Kruse, P. Pracht,  : VdW corrections, initial TS optimization,
                  C. Bannwarth, S. Ehlert          DFT functionals, gCP, sTDA/sTD-DF
   Ed Valeev, F. Pavosevic, A. Kumar             : LibInt (2-el integral package), F12 methods
   Garnet Chan, S. Sharma, J. Yang, R. Olivares  : DMRG
   Ulf Ekstrom                                   : XCFun DFT Library
   Mihaly Kallay                                 : mrcc  (arbitrary order and MRCC methods)
   Jiri Pittner, Ondrej Demel                    : Mk-CCSD
   Frank Weinhold                                : gennbo (NPA and NBO analysis)
   Christopher J. Cramer and Donald G. Truhlar   : smd solvation model
   Lars Goerigk                                  : TD-DFT with DH, B97 family of functionals
   V. Asgeirsson, H. Jonsson                     : NEB implementation
   FAccTs GmbH                                   : IRC, NEB, NEB-TS, DLPNO-Multilevel, CI-OPT
                                                   MM, QMMM, 2- and 3-layer-ONIOM, Crystal-QMMM,
                                                   LR-CPCM, SF, NACMEs, symmetry and pop. for TD-DFT,
                                                   nearIR, NL-DFT gradient (VV10), updates on ESD,
                                                   ML-optimized integration grids
   S Lehtola, MJT Oliveira, MAL Marques          : LibXC Library
   Liviu Ungur et al                             : ANISO software


 Your calculation uses the libint2 library for the computation of 2-el integrals
 For citations please refer to: http://libint.valeyev.net

 Your ORCA version has been built with support for libXC version: 5.1.0
 For citations please refer to: https://tddft.org/programs/libxc/

 This ORCA versions uses:
   CBLAS   interface :  Fast vector & matrix operations
   LAPACKE interface :  Fast linear algebra routines
   SCALAPACK package :  Parallel linear algebra routines
   Shared memory     :  Shared parallel matrices
   BLAS/LAPACK       :  OpenBLAS 0.3.15  USE64BITINT DYNAMIC_ARCH NO_AFFINITY SkylakeX SINGLE_THREADED
        Core in use  :  SkylakeX
   Copyright (c) 2011-2014, The OpenBLAS Project


Your calculation utilizes the atom-pairwise dispersion correction
with the zero-damping scheme (D30)
Cite in your paper:
S.Grimme, J.Antony, S.Ehrlich and H.Krieg, J.Chem.Phys., 132, (2010), 154104 
   

XCFun DFT library Copyright 2009-2010 Ulf Ekstrom and contributors.
See http://admol.org/xcfun for more information.
This is free software; see the source code for copying conditions.
There is ABSOLUTELY NO WARRANTY; not even for MERCHANTABILITY or FITNESS FOR A PARTICULAR PURPOSE.
For details see the documentation.
Scientific users of this library should cite U. Ekstrom, L. Visscher, R. Bast, A. J. Thorvaldsen and K. Ruud;
J.Chem.Theor.Comp. 2010, DOI: 10.1021/ct100117s
XCFun Version 0.99 

================================================================================

----- Orbital basis set information -----
Your calculation utilizes the basis: def2-TZVPD
   F. Weigend and R. Ahlrichs, Phys. Chem. Chem. Phys. 7, 3297 (2005).
   D. Rappoport and F. Furche, J. Chem. Phys. 133 134105 (2010).

----- AuxJ basis set information -----
Your calculation utilizes the auxiliary basis: def2/J
   F. Weigend, Phys. Chem. Chem. Phys. 8, 1057 (2006).

================================================================================
                                        WARNINGS
                       Please study these warnings very carefully!
================================================================================


WARNING: Geometry Optimization
  ===> : Switching off AutoStart
         For restart on a previous wavefunction, please use MOREAD

INFO   : the flag for use of the SHARK integral package has been found!

================================================================================
                                       INPUT FILE
================================================================================
NAME = /beegfs/scratch/ispackman/PFAS_EPR_calcs/benchmark/JChemEd_CF3_radical/CF3_radical_103.5_degrees_IN-PROGRESS/CF3_radical_103.5_degrees.inp
|  1> ! UKS TightSCF wB97x-D3 def2-TZVPD xyzfile opt freq
|  2> 
|  3> # CF3 radical 103.5 degrees fixed
|  4> 
|  5> %maxcore 1000
|  6> %pal
|  7> nprocs 18
|  8> end
|  9> 
| 10> %geom Constraints
| 11>         { A * 0 * C }
| 12>     end
| 13> end
| 14> * xyz 0 2
| 15> C 0.00 0.00 0.00
| 16> F 1.1924497360 0.0000000000 -0.5543362041
| 17> F -0.5962248680 1.0326917641 -0.5543362041
| 18> F -0.5962248680 -1.0326917641 -0.5543362041
| 19> **                         ****END OF INPUT****
================================================================================

                       *****************************
                       * Geometry Optimization Run *
                       *****************************

Geometry optimization settings:
Update method            Update   .... BFGS
Choice of coordinates    CoordSys .... Z-matrix Internals
Initial Hessian          InHess   .... Almoef's Model

Convergence Tolerances:
Energy Change            TolE     ....  5.0000e-06 Eh
Max. Gradient            TolMAXG  ....  3.0000e-04 Eh/bohr
RMS Gradient             TolRMSG  ....  1.0000e-04 Eh/bohr
Max. Displacement        TolMAXD  ....  4.0000e-03 bohr
RMS Displacement         TolRMSD  ....  2.0000e-03 bohr
Strict Convergence                ....  False
------------------------------------------------------------------------------
                        ORCA OPTIMIZATION COORDINATE SETUP
------------------------------------------------------------------------------

The optimization will be done in new redundant internal coordinates
Making redundant internal coordinates   ...  (new redundants) done
Evaluating the initial hessian          ...  (Almloef) done
Evaluating the coordinates              ...  done
Calculating the B-matrix                .... done
Calculating the G-matrix                .... done
Diagonalizing the G-matrix              .... done
Imposing constraints:
 Iter   0:  RMS(Cart)=    0.0000000000 RMS(Int)=    0.0000000000
CONVERGED
Will constrain atom 0 coordinate 1 
Will constrain atom 0 coordinate 2 
Will constrain atom 1 coordinate 2 
The first mode is                       ....    1
The number of degrees of freedom        ....    6
Storing new coordinates                 .... done

    -----------------------------------------------------------------
                    Redundant Internal Coordinates


    -----------------------------------------------------------------
         Definition                    Initial Value    Approx d2E/dq
    -----------------------------------------------------------------
      1. B(F   1,C   0)                  1.3150         0.684896   
      2. B(F   2,C   0)                  1.3150         0.684896   
      3. B(F   3,C   0)                  1.3150         0.684896   
      4. A(F   2,C   0,F   3)          103.5000         0.440101 C 
      5. A(F   1,C   0,F   2)          103.5000         0.440101 C 
      6. A(F   1,C   0,F   3)          103.5000         0.440101 C 
      7. I(F   1,F   3,F   2,C   0)     67.8473         0.004243   
    -----------------------------------------------------------------

Number of atoms                         .... 4
Number of degrees of freedom            .... 7

         *************************************************************
         *                GEOMETRY OPTIMIZATION CYCLE   1            *
         *************************************************************
---------------------------------
CARTESIAN COORDINATES (ANGSTROEM)
---------------------------------
  C      0.000000    0.000000    0.000000
  F      1.192450    0.000000   -0.554336
  F     -0.596225    1.032692   -0.554336
  F     -0.596225   -1.032692   -0.554336

----------------------------
CARTESIAN COORDINATES (A.U.)
----------------------------
  NO LB      ZA    FRAG     MASS         X           Y           Z
   0 C     6.0000    0    12.011    0.000000    0.000000    0.000000
   1 F     9.0000    0    18.998    2.253403    0.000000   -1.047544
   2 F     9.0000    0    18.998   -1.126702    1.951505   -1.047544
   3 F     9.0000    0    18.998   -1.126702   -1.951505   -1.047544

--------------------------------
INTERNAL COORDINATES (ANGSTROEM)
--------------------------------
 C      0   0   0     0.000000000000     0.00000000     0.00000000
 F      1   0   0     1.315000000024     0.00000000     0.00000000
 F      1   2   0     1.315000000014   103.50000000     0.00000000
 F      1   2   3     1.315000000014   103.50000000   107.73039836

---------------------------
INTERNAL COORDINATES (A.U.)
---------------------------
 C      0   0   0     0.000000000000     0.00000000     0.00000000
 F      1   0   0     2.484989866151     0.00000000     0.00000000
 F      1   2   0     2.484989866133   103.50000000     0.00000000
 F      1   2   3     2.484989866133   103.50000000   107.73039836

---------------------
BASIS SET INFORMATION
---------------------
There are 2 groups of distinct atoms

 Group   1 Type C   : 12s6p3d1f contracted to 6s3p3d1f pattern {621111/411/111/1}
 Group   2 Type F   : 12s7p3d1f contracted to 6s4p3d1f pattern {621111/4111/111/1}

Atom   0C    basis set group =>   1
Atom   1F    basis set group =>   2
Atom   2F    basis set group =>   2
Atom   3F    basis set group =>   2
---------------------------------
AUXILIARY/J BASIS SET INFORMATION
---------------------------------
There are 2 groups of distinct atoms

 Group   1 Type C   : 12s5p4d2f1g contracted to 6s4p3d1f1g pattern {711111/2111/211/2/1}
 Group   2 Type F   : 12s5p4d2f1g contracted to 6s4p3d1f1g pattern {711111/2111/211/2/1}

Atom   0C    basis set group =>   1
Atom   1F    basis set group =>   2
Atom   2F    basis set group =>   2
Atom   3F    basis set group =>   2


           ************************************************************
           *        Program running with 18 parallel MPI-processes    *
           *              working on a common directory               *
           ************************************************************
------------------------------------------------------------------------------
                           ORCA GTO INTEGRAL CALCULATION
                           -- RI-GTO INTEGRALS CHOSEN --
------------------------------------------------------------------------------
------------------------------------------------------------------------------
                   ___                                                        
                  /   \      - P O W E R E D   B Y -                         
                 /     \                                                     
                 |  |  |   _    _      __       _____    __    __             
                 |  |  |  | |  | |    /  \     |  _  \  |  |  /  |          
                  \  \/   | |  | |   /    \    | | | |  |  | /  /          
                 / \  \   | |__| |  /  /\  \   | |_| |  |  |/  /          
                |  |  |   |  __  | /  /__\  \  |    /   |      \           
                |  |  |   | |  | | |   __   |  |    \   |  |\   \          
                \     /   | |  | | |  |  |  |  | |\  \  |  | \   \       
                 \___/    |_|  |_| |__|  |__|  |_| \__\ |__|  \__/        
                                                                              
                      - O R C A' S   B I G   F R I E N D -                    
                                      &                                       
                       - I N T E G R A L  F E E D E R -                       
                                                                              
 v1 FN, 2020, v2 2021                                                         
------------------------------------------------------------------------------


Reading SHARK input file /beegfs/scratch/ispackman/PFAS_EPR_calcs/benchmark/JChemEd_CF3_radical/CF3_radical_103.5_degrees_IN-PROGRESS/CF3_radical_103.5_degrees.SHARKINP.tmp ... ok
----------------------
SHARK INTEGRAL PACKAGE
----------------------

Number of atoms                             ...      4
Number of basis functions                   ...    157
Number of shells                            ...     55
Maximum angular momentum                    ...      3
Integral batch strategy                     ... SHARK/LIBINT Hybrid
RI-J (if used) integral strategy            ... SPLIT-RIJ (Revised 2003 algorithm where possible)
Printlevel                                  ...      1
Contraction scheme used                     ... SEGMENTED contraction
Coulomb Range Separation                    ... NOT USED
Exchange Range Separation                   ... Long Range
   Mu parameter                             ...  0.250000
   Scaling (regular/separated)              ...  0.195728  0.804272
Finite Nucleus Model                        ... NOT USED
Auxiliary Coulomb fitting basis             ... AVAILABLE
   # of basis functions in Aux-J            ...    196
   # of shells in Aux-J                     ...     60
   Maximum angular momentum in Aux-J        ...      4
Auxiliary J/K fitting basis                 ... NOT available
Auxiliary Correlation fitting basis         ... NOT available
Auxiliary 'external' fitting basis          ... NOT available
Integral threshold                          ...     2.500000e-11
Primitive cut-off                           ...     2.500000e-12
Primitive pair pre-selection threshold      ...     2.500000e-12

Calculating pre-screening integrals         ... done (  0.1 sec) Dimension = 55
Organizing shell pair data                  ... done (  0.0 sec)
Shell pair information
Total number of shell pairs                 ...      1540
Shell pairs after pre-screening             ...      1504
Total number of primitive shell pairs       ...      4274
Primitive shell pairs kept                  ...      3545
          la=0 lb=0:    282 shell pairs
          la=1 lb=0:    354 shell pairs
          la=1 lb=1:    120 shell pairs
          la=2 lb=0:    276 shell pairs
          la=2 lb=1:    180 shell pairs
          la=2 lb=2:     78 shell pairs
          la=3 lb=0:     96 shell pairs
          la=3 lb=1:     60 shell pairs
          la=3 lb=2:     48 shell pairs
          la=3 lb=3:     10 shell pairs

Calculating one electron integrals          ... done (  0.0 sec)
Calculating RI/J V-Matrix + Cholesky decomp.... done (  0.6 sec)
Calculating Nuclear repulsion               ... done (  0.0 sec) ENN=    127.451065654479 Eh

SHARK setup successfully completed in   4.3 seconds

Maximum memory used throughout the entire GTOINT-calculation: 15.2 MB


           ************************************************************
           *        Program running with 18 parallel MPI-processes    *
           *              working on a common directory               *
           ************************************************************
-------------------------------------------------------------------------------
                                 ORCA SCF
-------------------------------------------------------------------------------

------------
SCF SETTINGS
------------
Hamiltonian:
 Density Functional     Method          .... DFT(GTOs)
 Exchange Functional    Exchange        .... WB97X-D3
 Correlation Functional Correlation     .... WB97X-D3
 Gradients option       PostSCFGGA      .... off
 Hybrid DFT is turned on
   Fraction HF Exchange ScalHFX         ....  0.195728
   Scaling of DF-GGA-X  ScalDFX         ....  0.000000
   Scaling of DF-GGA-C  ScalDFC         ....  1.000000
   Scaling of DF-LDA-C  ScalLDAC        ....  1.000000
   Perturbative correction              ....  0.000000
   Density functional embedding theory  .... OFF
 Long-range corrected/Screened/Range-Separated Hybrid DFT is turned on
   Amount of maximum screened exact exchange              ....  0.804272
   Range separation parameter mu (erf(mu*r12)/r12)        ....  0.250000
 RI-approximation to the Coulomb term is turned on
   Number of AuxJ basis functions       .... 196
   RIJ-COSX (HFX calculated with COS-X)).... on


General Settings:
 Integral files         IntName         .... /beegfs/scratch/ispackman/PFAS_EPR_calcs/benchmark/JChemEd_CF3_radical/CF3_radical_103.5_degrees_IN-PROGRESS/CF3_radical_103.5_degrees
 Hartree-Fock type      HFTyp           .... UHF
 Total Charge           Charge          ....    0
 Multiplicity           Mult            ....    2
 Number of Electrons    NEL             ....   33
 Basis Dimension        Dim             ....  157
 Nuclear Repulsion      ENuc            ....    127.4510656545 Eh

Convergence Acceleration:
 DIIS                   CNVDIIS         .... on
   Start iteration      DIISMaxIt       ....    12
   Startup error        DIISStart       ....  0.200000
   # of expansion vecs  DIISMaxEq       ....     5
   Bias factor          DIISBfac        ....   1.050
   Max. coefficient     DIISMaxC        ....  10.000
 Trust-Rad. Augm. Hess. CNVTRAH         .... auto
   Auto Start mean grad. ratio tolernc. ....  1.125000
   Auto Start start iteration           ....    20
   Auto Start num. interpolation iter.  ....    10
   Max. Number of Micro iterations      ....    16
   Max. Number of Macro iterations      .... Maxiter - #DIIS iter
   Number of Davidson start vectors     ....     2
   Converg. threshold I  (grad. norm)   ....   1.000e-05
   Converg. threshold II (energy diff.) ....   1.000e-08
   Grad. Scal. Fac. for Micro threshold ....   0.100
   Minimum threshold for Micro iter.    ....   0.010
   NR start threshold (gradient norm)   ....   0.001
   Initial trust radius                 ....   0.400
   Minimum AH scaling param. (alpha)    ....   1.000
   Maximum AH scaling param. (alpha)    .... 1000.000
   Orbital update algorithm             .... Taylor
   White noise on init. David. guess    .... on
   Maximum white noise                  ....   0.010
   Quad. conv. algorithm                .... NR
 SOSCF                  CNVSOSCF        .... off
 Level Shifting         CNVShift        .... on
   Level shift para.    LevelShift      ....    0.2500
   Turn off err/grad.   ShiftErr        ....    0.0010
 Zerner damping         CNVZerner       .... off
 Static damping         CNVDamp         .... on
   Fraction old density DampFac         ....    0.7000
   Max. Damping (<1)    DampMax         ....    0.9800
   Min. Damping (>=0)   DampMin         ....    0.0000
   Turn off err/grad.   DampErr         ....    0.1000
 Fernandez-Rico         CNVRico         .... off

SCF Procedure:
 Maximum # iterations   MaxIter         ....   125
 SCF integral mode      SCFMode         .... Direct
   Integral package                     .... SHARK and LIBINT hybrid scheme
 Reset frequency        DirectResetFreq ....    20
 Integral Threshold     Thresh          ....  2.500e-11 Eh
 Primitive CutOff       TCut            ....  2.500e-12 Eh

Convergence Tolerance:
 Convergence Check Mode ConvCheckMode   .... Total+1el-Energy
 Convergence forced     ConvForced      .... 0
 Energy Change          TolE            ....  1.000e-08 Eh
 1-El. energy change                    ....  1.000e-05 Eh
 DIIS Error             TolErr          ....  5.000e-07


Diagonalization of the overlap matrix:
Smallest eigenvalue                        ... 3.474e-04
Time for diagonalization                   ...    0.008 sec
Threshold for overlap eigenvalues          ... 1.000e-08
Number of eigenvalues below threshold      ... 0
Time for construction of square roots      ...    0.022 sec
Total time needed                          ...    0.031 sec

Time for model grid setup =    0.070 sec

------------------------------
INITIAL GUESS: MODEL POTENTIAL
------------------------------
Loading Hartree-Fock densities                     ... done
Calculating cut-offs                               ... done
Initializing the effective Hamiltonian             ... done
Setting up the integral package (SHARK)            ... done
Starting the Coulomb interaction                   ... done (   1.4 sec)
Reading the grid                                   ... done
Mapping shells                                     ... done
Starting the XC term evaluation                    ... done (   0.0 sec)
  promolecular density results
     # of electrons  =     33.000317947
     EX              =    -35.101132252
     EC              =     -1.147195337
     EX+EC           =    -36.248327589
Transforming the Hamiltonian                       ... done (   0.0 sec)
Diagonalizing the Hamiltonian                      ... done (   0.0 sec)
Back transforming the eigenvectors                 ... done (   0.0 sec)
Now organizing SCF variables                       ... done
                      ------------------
                      INITIAL GUESS DONE (   1.5 sec)
                      ------------------
-------------------
DFT GRID GENERATION
-------------------

General Integration Accuracy     IntAcc      ... 4.388
Radial Grid Type                 RadialGrid  ... OptM3 with GC (2021)
Angular Grid (max. ang.)         AngularGrid ... 4 (Lebedev-302)
Angular grid pruning method      GridPruning ... 4 (adaptive)
Weight generation scheme         WeightScheme... Becke
Basis function cutoff            BFCut       ... 1.0000e-11
Integration weight cutoff        WCut        ... 1.0000e-14
Angular grids for H and He will be reduced by one unit
Partially contracted basis set               ... off
Rotationally invariant grid construction     ... off

Total number of grid points                  ...    25779
Total number of batches                      ...      404
Average number of points per batch           ...       63
Average number of grid points per atom       ...     6445
Time for grid setup =    0.155 sec

--------------------
COSX GRID GENERATION
--------------------

GRIDX 1
-------
General Integration Accuracy     IntAcc      ... 3.816
Radial Grid Type                 RadialGrid  ... OptM3 with GC (2021)
Angular Grid (max. ang.)         AngularGrid ... 1 (Lebedev-50)
Angular grid pruning method      GridPruning ... 4 (adaptive)
Weight generation scheme         WeightScheme... Becke
Basis function cutoff            BFCut       ... 1.0000e-11
Integration weight cutoff        WCut        ... 1.0000e-14
Angular grids for H and He will be reduced by one unit
Partially contracted basis set               ... on
Rotationally invariant grid construction     ... off

Total number of grid points                  ...     3270
Total number of batches                      ...       53
Average number of points per batch           ...       61
Average number of grid points per atom       ...      818
UseSFitting                                  ... on

GRIDX 2
-------
General Integration Accuracy     IntAcc      ... 4.020
Radial Grid Type                 RadialGrid  ... OptM3 with GC (2021)
Angular Grid (max. ang.)         AngularGrid ... 2 (Lebedev-110)
Angular grid pruning method      GridPruning ... 4 (adaptive)
Weight generation scheme         WeightScheme... Becke
Basis function cutoff            BFCut       ... 1.0000e-11
Integration weight cutoff        WCut        ... 1.0000e-14
Angular grids for H and He will be reduced by one unit
Partially contracted basis set               ... on
Rotationally invariant grid construction     ... off

Total number of grid points                  ...     9111
Total number of batches                      ...      144
Average number of points per batch           ...       63
Average number of grid points per atom       ...     2278
UseSFitting                                  ... on

GRIDX 3
-------
General Integration Accuracy     IntAcc      ... 4.338
Radial Grid Type                 RadialGrid  ... OptM3 with GC (2021)
Angular Grid (max. ang.)         AngularGrid ... 3 (Lebedev-194)
Angular grid pruning method      GridPruning ... 4 (adaptive)
Weight generation scheme         WeightScheme... Becke
Basis function cutoff            BFCut       ... 1.0000e-11
Integration weight cutoff        WCut        ... 1.0000e-14
Angular grids for H and He will be reduced by one unit
Partially contracted basis set               ... on
Rotationally invariant grid construction     ... off

Total number of grid points                  ...    19667
Total number of batches                      ...      310
Average number of points per batch           ...       63
Average number of grid points per atom       ...     4917
UseSFitting                                  ... on

Time for X-Grid setup             =    0.395 sec

--------------
SCF ITERATIONS
--------------
ITER       Energy         Delta-E        Max-DP      RMS-DP      [F,P]     Damp
               ***  Starting incremental Fock matrix formation  ***
  0   -337.5552652067   0.000000000000 0.01668718  0.00038993  0.0656510 0.7000
  1   -337.5811512168  -0.025886010159 0.00964906  0.00026111  0.0311397 0.7000
                               ***Turning on DIIS***
  2   -337.5920170130  -0.010865796230 0.02288080  0.00050190  0.0164156 0.0000
  3   -337.6114987276  -0.019481714559 0.00642496  0.00014689  0.0147179 0.0000
  4   -337.6145635650  -0.003064837348 0.00512948  0.00008601  0.0035677 0.0000
  5   -337.6147922964  -0.000228731477 0.00292004  0.00005196  0.0021381 0.0000
  6   -337.6148627299  -0.000070433462 0.00299437  0.00004854  0.0008736 0.0000
               *** Restarting incremental Fock matrix formation ***
                                   *** Resetting DIIS ***
  7   -337.6148919557  -0.000029225784 0.00052648  0.00000806  0.0001700 0.0000
  8   -337.6148927083  -0.000000752621 0.00012022  0.00000227  0.0000871 0.0000
  9   -337.6148928849  -0.000000176598 0.00006227  0.00000137  0.0000815 0.0000
 10   -337.6148929576  -0.000000072704 0.00004332  0.00000055  0.0000132 0.0000
                 **** Energy Check signals convergence ****

               *****************************************************
               *                     SUCCESS                       *
               *           SCF CONVERGED AFTER  11 CYCLES          *
               *****************************************************

Old exchange energy                            =    -10.541054397 Eh
New exchange energy                            =    -10.541029543 Eh
Exchange energy change after final integration =      0.000024855 Eh
Total energy after final integration           =   -337.614868106 Eh
Final COS-X integration done in                =     0.402 sec

----------------
TOTAL SCF ENERGY
----------------

Total Energy       :         -337.61486811 Eh           -9186.96762 eV

Components:
Nuclear Repulsion  :          127.45106565 Eh            3468.11981 eV
Electronic Energy  :         -465.06593376 Eh          -12655.08743 eV
One Electron Energy:         -721.79470219 Eh          -19641.03238 eV
Two Electron Energy:          256.72876843 Eh            6985.94495 eV
Max COSX asymmetry :            0.00000043 Eh               0.00001 eV

Virial components:
Potential Energy   :         -674.35325690 Eh          -18350.08502 eV
Kinetic Energy     :          336.73838879 Eh            9163.11740 eV
Virial Ratio       :            2.00260285


DFT components:
N(Alpha)           :       16.999883529763 electrons
N(Beta)            :       15.999899887575 electrons
N(Total)           :       32.999783417338 electrons
E(XC)              :      -26.208617424379 Eh       
DFET-embed. en.    :        0.000000000000 Eh       

---------------
SCF CONVERGENCE
---------------

  Last Energy change         ...   -2.5270e-09  Tolerance :   1.0000e-08
  Last MAX-Density change    ...    0.0000e+00  Tolerance :   1.0000e-07
  Last RMS-Density change    ...    0.0000e+00  Tolerance :   5.0000e-09
  Last DIIS Error            ...    2.0643e-06  Tolerance :   5.0000e-07

             **** THE GBW FILE WAS UPDATED (/beegfs/scratch/ispackman/PFAS_EPR_calcs/benchmark/JChemEd_CF3_radical/CF3_radical_103.5_degrees_IN-PROGRESS/CF3_radical_103.5_degrees.gbw) ****
             **** DENSITY /beegfs/scratch/ispackman/PFAS_EPR_calcs/benchmark/JChemEd_CF3_radical/CF3_radical_103.5_degrees_IN-PROGRESS/CF3_radical_103.5_degrees.scfp WAS UPDATED ****
             **** ENERGY FILE WAS UPDATED (/beegfs/scratch/ispackman/PFAS_EPR_calcs/benchmark/JChemEd_CF3_radical/CF3_radical_103.5_degrees_IN-PROGRESS/CF3_radical_103.5_degrees.en.tmp) ****
----------------------
UHF SPIN CONTAMINATION
----------------------

Warning: in a DFT calculation there is little theoretical justification to 
         calculate <S**2> as in Hartree-Fock theory. We will do it anyways
         but you should keep in mind that the values have only limited relevance

Expectation value of <S**2>     :     0.752092
Ideal value S*(S+1) for S=0.5   :     0.750000
Deviation                       :     0.002092

             **** THE GBW FILE WAS UPDATED (/beegfs/scratch/ispackman/PFAS_EPR_calcs/benchmark/JChemEd_CF3_radical/CF3_radical_103.5_degrees_IN-PROGRESS/CF3_radical_103.5_degrees.gbw) ****
             **** DENSITY /beegfs/scratch/ispackman/PFAS_EPR_calcs/benchmark/JChemEd_CF3_radical/CF3_radical_103.5_degrees_IN-PROGRESS/CF3_radical_103.5_degrees.scfp WAS UPDATED ****
----------------
ORBITAL ENERGIES
----------------
                 SPIN UP ORBITALS
  NO   OCC          E(Eh)            E(eV) 
   0   1.0000     -24.843414      -676.0237 
   1   1.0000     -24.843411      -676.0236 
   2   1.0000     -24.843400      -676.0233 
   3   1.0000     -10.548784      -287.0470 
   4   1.0000      -1.480903       -40.2974 
   5   1.0000      -1.371767       -37.3277 
   6   1.0000      -1.371759       -37.3275 
   7   1.0000      -0.838748       -22.8235 
   8   1.0000      -0.727638       -19.8000 
   9   1.0000      -0.727630       -19.7998 
  10   1.0000      -0.705839       -19.2069 
  11   1.0000      -0.606721       -16.5097 
  12   1.0000      -0.606716       -16.5096 
  13   1.0000      -0.553617       -15.0647 
  14   1.0000      -0.553606       -15.0644 
  15   1.0000      -0.531910       -14.4740 
  16   1.0000      -0.419456       -11.4140 
  17   0.0000       0.072383         1.9696 
  18   0.0000       0.105496         2.8707 
  19   0.0000       0.105496         2.8707 
  20   0.0000       0.112249         3.0545 
  21   0.0000       0.160812         4.3759 
  22   0.0000       0.160813         4.3759 
  23   0.0000       0.171830         4.6757 
  24   0.0000       0.171830         4.6757 
  25   0.0000       0.187629         5.1056 
  26   0.0000       0.221502         6.0274 
  27   0.0000       0.221508         6.0275 
  28   0.0000       0.240192         6.5359 
  29   0.0000       0.289120         7.8674 
  30   0.0000       0.344134         9.3644 
  31   0.0000       0.351728         9.5710 
  32   0.0000       0.351736         9.5712 
  33   0.0000       0.388203        10.5635 
  34   0.0000       0.388204        10.5636 
  35   0.0000       0.391923        10.6648 
  36   0.0000       0.405277        11.0282 
  37   0.0000       0.405279        11.0282 
  38   0.0000       0.415713        11.3121 
  39   0.0000       0.487465        13.2646 
  40   0.0000       0.487470        13.2647 
  41   0.0000       0.511143        13.9089 
  42   0.0000       0.567427        15.4405 
  43   0.0000       0.628420        17.1002 
  44   0.0000       0.628420        17.1002 
  45   0.0000       0.690236        18.7823 
  46   0.0000       0.690240        18.7824 
  47   0.0000       0.710880        19.3440 
  48   0.0000       0.722279        19.6542 
  49   0.0000       0.722287        19.6544 
  50   0.0000       0.730123        19.8676 
  51   0.0000       0.761272        20.7153 
  52   0.0000       0.793216        21.5845 
  53   0.0000       0.793219        21.5846 
  54   0.0000       0.874349        23.7923 
  55   0.0000       0.895923        24.3793 
  56   0.0000       0.895929        24.3795 
  57   0.0000       0.935563        25.4580 
  58   0.0000       0.971185        26.4273 
  59   0.0000       0.971193        26.4275 
  60   0.0000       1.074098        29.2277 
  61   0.0000       1.074104        29.2278 
  62   0.0000       1.105626        30.0856 
  63   0.0000       1.163042        31.6480 
  64   0.0000       1.167120        31.7590 
  65   0.0000       1.167121        31.7590 
  66   0.0000       1.230393        33.4807 
  67   0.0000       1.247346        33.9420 
  68   0.0000       1.247354        33.9422 
  69   0.0000       1.322902        35.9980 
  70   0.0000       1.322909        35.9982 
  71   0.0000       1.327210        36.1152 
  72   0.0000       1.447977        39.4015 
  73   0.0000       1.448011        39.4024 
  74   0.0000       1.671599        45.4865 
  75   0.0000       2.129409        57.9442 
  76   0.0000       2.161492        58.8172 
  77   0.0000       2.161515        58.8178 
  78   0.0000       2.193649        59.6922 
  79   0.0000       2.220275        60.4168 
  80   0.0000       2.220281        60.4169 
  81   0.0000       2.222459        60.4762 
  82   0.0000       2.329954        63.4013 
  83   0.0000       2.329989        63.4022 
  84   0.0000       2.373426        64.5842 
  85   0.0000       2.470677        67.2305 
  86   0.0000       2.470685        67.2308 
  87   0.0000       2.595648        70.6312 
  88   0.0000       2.595656        70.6314 
  89   0.0000       2.798830        76.1600 
  90   0.0000       2.886538        78.5467 
  91   0.0000       2.944597        80.1266 
  92   0.0000       2.944628        80.1274 
  93   0.0000       3.124785        85.0297 
  94   0.0000       3.174426        86.3805 
  95   0.0000       3.191003        86.8316 
  96   0.0000       3.191030        86.8323 
  97   0.0000       3.298715        89.7626 
  98   0.0000       3.298764        89.7639 
  99   0.0000       3.392857        92.3243 
 100   0.0000       3.392881        92.3250 
 101   0.0000       3.434501        93.4575 
 102   0.0000       3.609571        98.2214 
 103   0.0000       3.609601        98.2222 
 104   0.0000       3.722537       101.2954 
 105   0.0000       3.876743       105.4915 
 106   0.0000       3.906247       106.2944 
 107   0.0000       3.971913       108.0812 
 108   0.0000       3.971979       108.0830 
 109   0.0000       4.083917       111.1290 
 110   0.0000       4.083935       111.1295 
 111   0.0000       4.188529       113.9757 
 112   0.0000       4.224175       114.9456 
 113   0.0000       4.224248       114.9476 
 114   0.0000       5.376740       146.3085 
 115   0.0000       5.383972       146.5053 
 116   0.0000       5.384040       146.5072 
 117   0.0000       6.911275       188.0653 
 118   0.0000       6.911793       188.0795 
 119   0.0000       6.911805       188.0798 
 120   0.0000       6.918249       188.2551 
 121   0.0000       6.918331       188.2574 
 122   0.0000       6.927457       188.5057 
 123   0.0000       6.930261       188.5820 
 124   0.0000       6.930298       188.5830 
 125   0.0000       6.938098       188.7952 
 126   0.0000       7.067963       192.3290 
 127   0.0000       7.068025       192.3307 
 128   0.0000       7.138772       194.2559 
 129   0.0000       7.248073       197.2301 
 130   0.0000       7.250640       197.2999 
 131   0.0000       7.250656       197.3004 
 132   0.0000       7.483709       203.6421 
 133   0.0000       7.518715       204.5946 
 134   0.0000       7.518764       204.5960 
 135   0.0000       7.576438       206.1654 
 136   0.0000       7.765171       211.3010 
 137   0.0000       7.765245       211.3031 
 138   0.0000       8.508995       231.5415 
 139   0.0000       8.509037       231.5427 
 140   0.0000       8.553104       232.7418 
 141   0.0000       8.598587       233.9794 
 142   0.0000       8.598627       233.9805 
 143   0.0000       8.606673       234.1995 
 144   0.0000       8.811495       239.7730 
 145   0.0000       8.821098       240.0343 
 146   0.0000       8.821121       240.0349 
 147   0.0000       8.969902       244.0834 
 148   0.0000       9.133486       248.5348 
 149   0.0000       9.133550       248.5365 
 150   0.0000       9.233240       251.2492 
 151   0.0000       9.409113       256.0350 
 152   0.0000       9.409133       256.0355 
 153   0.0000      22.729660       618.5055 
 154   0.0000      57.313556      1559.5811 
 155   0.0000      57.313588      1559.5820 
 156   0.0000      57.334490      1560.1508 

                 SPIN DOWN ORBITALS
  NO   OCC          E(Eh)            E(eV) 
   0   1.0000     -24.840509      -675.9446 
   1   1.0000     -24.840503      -675.9445 
   2   1.0000     -24.840488      -675.9440 
   3   1.0000     -10.535919      -286.6969 
   4   1.0000      -1.471753       -40.0484 
   5   1.0000      -1.363104       -37.0919 
   6   1.0000      -1.363095       -37.0917 
   7   1.0000      -0.820735       -22.3333 
   8   1.0000      -0.717056       -19.5121 
   9   1.0000      -0.717048       -19.5119 
  10   1.0000      -0.665648       -18.1132 
  11   1.0000      -0.595160       -16.1951 
  12   1.0000      -0.595155       -16.1950 
  13   1.0000      -0.545684       -14.8488 
  14   1.0000      -0.545672       -14.8485 
  15   1.0000      -0.528612       -14.3843 
  16   0.0000      -0.067548        -1.8381 
  17   0.0000       0.082808         2.2533 
  18   0.0000       0.108450         2.9511 
  19   0.0000       0.108450         2.9511 
  20   0.0000       0.127585         3.4718 
  21   0.0000       0.164496         4.4762 
  22   0.0000       0.164497         4.4762 
  23   0.0000       0.178264         4.8508 
  24   0.0000       0.178264         4.8508 
  25   0.0000       0.199158         5.4194 
  26   0.0000       0.241257         6.5649 
  27   0.0000       0.243754         6.6329 
  28   0.0000       0.243757         6.6330 
  29   0.0000       0.294871         8.0238 
  30   0.0000       0.355686         9.6787 
  31   0.0000       0.372656        10.1405 
  32   0.0000       0.372660        10.1406 
  33   0.0000       0.389534        10.5998 
  34   0.0000       0.389536        10.5998 
  35   0.0000       0.402041        10.9401 
  36   0.0000       0.408269        11.1096 
  37   0.0000       0.408269        11.1096 
  38   0.0000       0.425065        11.5666 
  39   0.0000       0.488564        13.2945 
  40   0.0000       0.488567        13.2946 
  41   0.0000       0.515608        14.0304 
  42   0.0000       0.572019        15.5654 
  43   0.0000       0.630611        17.1598 
  44   0.0000       0.630614        17.1599 
  45   0.0000       0.691782        18.8244 
  46   0.0000       0.691785        18.8244 
  47   0.0000       0.711219        19.3532 
  48   0.0000       0.725127        19.7317 
  49   0.0000       0.725133        19.7319 
  50   0.0000       0.741513        20.1776 
  51   0.0000       0.760497        20.6942 
  52   0.0000       0.794968        21.6322 
  53   0.0000       0.794970        21.6322 
  54   0.0000       0.875891        23.8342 
  55   0.0000       0.898750        24.4562 
  56   0.0000       0.898755        24.4564 
  57   0.0000       0.949478        25.8366 
  58   0.0000       0.979000        26.6399 
  59   0.0000       0.979006        26.6401 
  60   0.0000       1.077377        29.3169 
  61   0.0000       1.077381        29.3170 
  62   0.0000       1.109093        30.1800 
  63   0.0000       1.168781        31.8041 
  64   0.0000       1.168786        31.8043 
  65   0.0000       1.175627        31.9904 
  66   0.0000       1.234734        33.5988 
  67   0.0000       1.258377        34.2422 
  68   0.0000       1.258386        34.2424 
  69   0.0000       1.327549        36.1244 
  70   0.0000       1.330092        36.1937 
  71   0.0000       1.330113        36.1942 
  72   0.0000       1.450680        39.4750 
  73   0.0000       1.450716        39.4760 
  74   0.0000       1.726117        46.9700 
  75   0.0000       2.138340        58.1872 
  76   0.0000       2.170157        59.0530 
  77   0.0000       2.170161        59.0531 
  78   0.0000       2.196835        59.7789 
  79   0.0000       2.227798        60.6215 
  80   0.0000       2.227805        60.6216 
  81   0.0000       2.234867        60.8138 
  82   0.0000       2.335340        63.5478 
  83   0.0000       2.335372        63.5487 
  84   0.0000       2.374721        64.6195 
  85   0.0000       2.479018        67.4575 
  86   0.0000       2.479022        67.4576 
  87   0.0000       2.617822        71.2346 
  88   0.0000       2.617858        71.2355 
  89   0.0000       2.805848        76.3510 
  90   0.0000       2.893349        78.7320 
  91   0.0000       2.949266        80.2536 
  92   0.0000       2.949277        80.2539 
  93   0.0000       3.143311        85.5338 
  94   0.0000       3.205301        87.2207 
  95   0.0000       3.205310        87.2209 
  96   0.0000       3.225826        87.7792 
  97   0.0000       3.326343        90.5144 
  98   0.0000       3.326357        90.5148 
  99   0.0000       3.434120        93.4472 
 100   0.0000       3.434122        93.4472 
 101   0.0000       3.441629        93.6515 
 102   0.0000       3.632115        98.8349 
 103   0.0000       3.632118        98.8350 
 104   0.0000       3.756046       102.2072 
 105   0.0000       3.887289       105.7785 
 106   0.0000       3.914041       106.5065 
 107   0.0000       3.998817       108.8133 
 108   0.0000       3.998870       108.8148 
 109   0.0000       4.091560       111.3370 
 110   0.0000       4.091568       111.3372 
 111   0.0000       4.200137       114.2915 
 112   0.0000       4.233019       115.1863 
 113   0.0000       4.233082       115.1880 
 114   0.0000       5.389630       146.6593 
 115   0.0000       5.394147       146.7822 
 116   0.0000       5.394162       146.7826 
 117   0.0000       6.915737       188.1868 
 118   0.0000       6.917269       188.2284 
 119   0.0000       6.917279       188.2287 
 120   0.0000       6.921855       188.3532 
 121   0.0000       6.921917       188.3549 
 122   0.0000       6.932951       188.6552 
 123   0.0000       6.935223       188.7170 
 124   0.0000       6.935260       188.7180 
 125   0.0000       6.941291       188.8821 
 126   0.0000       7.073768       192.4870 
 127   0.0000       7.073825       192.4886 
 128   0.0000       7.142060       194.3453 
 129   0.0000       7.255242       197.4252 
 130   0.0000       7.257611       197.4896 
 131   0.0000       7.257623       197.4900 
 132   0.0000       7.493582       203.9107 
 133   0.0000       7.525837       204.7884 
 134   0.0000       7.525879       204.7896 
 135   0.0000       7.584766       206.3920 
 136   0.0000       7.772597       211.5031 
 137   0.0000       7.772707       211.5061 
 138   0.0000       8.516827       231.7546 
 139   0.0000       8.516866       231.7557 
 140   0.0000       8.559924       232.9274 
 141   0.0000       8.608451       234.2479 
 142   0.0000       8.608492       234.2490 
 143   0.0000       8.616064       234.4550 
 144   0.0000       8.817659       239.9407 
 145   0.0000       8.830202       240.2820 
 146   0.0000       8.830224       240.2826 
 147   0.0000       8.979371       244.3411 
 148   0.0000       9.138509       248.6715 
 149   0.0000       9.138565       248.6730 
 150   0.0000       9.239431       251.4177 
 151   0.0000       9.415653       256.2129 
 152   0.0000       9.415677       256.2136 
 153   0.0000      22.752657       619.1313 
 154   0.0000      57.316430      1559.6594 
 155   0.0000      57.316463      1559.6603 
 156   0.0000      57.337394      1560.2298 

                    ********************************
                    * MULLIKEN POPULATION ANALYSIS *
                    ********************************

--------------------------------------------
MULLIKEN ATOMIC CHARGES AND SPIN POPULATIONS
--------------------------------------------
   0 C :    0.558723    0.788411
   1 F :   -0.186232    0.070519
   2 F :   -0.186245    0.070535
   3 F :   -0.186246    0.070535
Sum of atomic charges         :   -0.0000000
Sum of atomic spin populations:    1.0000000

-----------------------------------------------------
MULLIKEN REDUCED ORBITAL CHARGES AND SPIN POPULATIONS
-----------------------------------------------------
CHARGE
  0 C s       :     3.190807  s :     3.190807
      pz      :     0.848003  p :     1.910129
      px      :     0.531043
      py      :     0.531082
      dz2     :     0.057559  d :     0.298018
      dxz     :     0.048101
      dyz     :     0.048119
      dx2y2   :     0.072124
      dxy     :     0.072116
      f0      :     0.001503  f :     0.042324
      f+1     :     0.006242
      f-1     :     0.006244
      f+2     :     0.006883
      f-2     :     0.006885
      f+3     :     0.004328
      f-3     :     0.010239
  1 F s       :     3.953250  s :     3.953250
      pz      :     1.762072  p :     5.222742
      px      :     1.535876
      py      :     1.924794
      dz2     :     0.000636  d :     0.009411
      dxz     :     0.005505
      dyz     :     0.001254
      dx2y2   :     0.004693
      dxy     :    -0.002677
      f0      :     0.000084  f :     0.000828
      f+1     :     0.000166
      f-1     :     0.000004
      f+2     :     0.000209
      f-2     :     0.000061
      f+3     :     0.000171
      f-3     :     0.000132
  2 F s       :     3.953291  s :     3.953291
      pz      :     1.762048  p :     5.222728
      px      :     1.827559
      py      :     1.633122
      dz2     :     0.000633  d :     0.009398
      dxz     :     0.002316
      dyz     :     0.004441
      dx2y2   :    -0.000836
      dxy     :     0.002844
      f0      :     0.000084  f :     0.000828
      f+1     :     0.000045
      f-1     :     0.000125
      f+2     :     0.000098
      f-2     :     0.000172
      f+3     :     0.000171
      f-3     :     0.000132
  3 F s       :     3.953292  s :     3.953292
      pz      :     1.762048  p :     5.222728
      px      :     1.827559
      py      :     1.633122
      dz2     :     0.000633  d :     0.009398
      dxz     :     0.002316
      dyz     :     0.004441
      dx2y2   :    -0.000836
      dxy     :     0.002844
      f0      :     0.000084  f :     0.000828
      f+1     :     0.000045
      f-1     :     0.000125
      f+2     :     0.000098
      f-2     :     0.000172
      f+3     :     0.000171
      f-3     :     0.000132

SPIN
  0 C s       :     0.272209  s :     0.272209
      pz      :     0.482133  p :     0.505994
      px      :     0.011932
      py      :     0.011929
      dz2     :     0.015811  d :     0.010971
      dxz     :    -0.001507
      dyz     :    -0.001506
      dx2y2   :    -0.000916
      dxy     :    -0.000911
      f0      :    -0.000090  f :    -0.000763
      f+1     :    -0.000381
      f-1     :    -0.000381
      f+2     :    -0.000182
      f-2     :    -0.000181
      f+3     :     0.000405
      f-3     :     0.000047
  1 F s       :     0.003281  s :     0.003281
      pz      :     0.069406  p :     0.065726
      px      :    -0.002501
      py      :    -0.001179
      dz2     :     0.000045  d :     0.001480
      dxz     :     0.000696
      dyz     :    -0.000011
      dx2y2   :     0.000827
      dxy     :    -0.000077
      f0      :    -0.000000  f :     0.000032
      f+1     :     0.000021
      f-1     :     0.000000
      f+2     :     0.000001
      f-2     :     0.000002
      f+3     :     0.000008
      f-3     :     0.000000
  2 F s       :     0.003288  s :     0.003288
      pz      :     0.069396  p :     0.065730
      px      :    -0.001501
      py      :    -0.002166
      dz2     :     0.000045  d :     0.001484
      dxz     :     0.000166
      dyz     :     0.000520
      dx2y2   :     0.000150
      dxy     :     0.000604
      f0      :    -0.000000  f :     0.000032
      f+1     :     0.000005
      f-1     :     0.000016
      f+2     :     0.000002
      f-2     :     0.000001
      f+3     :     0.000008
      f-3     :     0.000000
  3 F s       :     0.003288  s :     0.003288
      pz      :     0.069396  p :     0.065730
      px      :    -0.001501
      py      :    -0.002166
      dz2     :     0.000045  d :     0.001485
      dxz     :     0.000166
      dyz     :     0.000520
      dx2y2   :     0.000150
      dxy     :     0.000604
      f0      :    -0.000000  f :     0.000032
      f+1     :     0.000005
      f-1     :     0.000016
      f+2     :     0.000002
      f-2     :     0.000001
      f+3     :     0.000008
      f-3     :     0.000000


                     *******************************
                     * LOEWDIN POPULATION ANALYSIS *
                     *******************************

-------------------------------------------
LOEWDIN ATOMIC CHARGES AND SPIN POPULATIONS
-------------------------------------------
   0 C :   -0.366030    0.621660
   1 F :    0.121996    0.126124
   2 F :    0.122017    0.126108
   3 F :    0.122017    0.126108

----------------------------------------------------
LOEWDIN REDUCED ORBITAL CHARGES AND SPIN POPULATIONS
----------------------------------------------------
CHARGE
  0 C s       :     2.701591  s :     2.701591
      pz      :     0.806446  p :     2.176184
      px      :     0.684853
      py      :     0.684884
      dz2     :     0.173682  d :     1.213735
      dxz     :     0.208594
      dyz     :     0.208602
      dx2y2   :     0.311429
      dxy     :     0.311428
      f0      :     0.015509  f :     0.274521
      f+1     :     0.030358
      f-1     :     0.030359
      f+2     :     0.051230
      f-2     :     0.051231
      f+3     :     0.039602
      f-3     :     0.056231
  1 F s       :     3.556484  s :     3.556484
      pz      :     1.696309  p :     5.096891
      px      :     1.613919
      py      :     1.786663
      dz2     :     0.036555  d :     0.222654
      dxz     :     0.064725
      dyz     :     0.009157
      dx2y2   :     0.043409
      dxy     :     0.068808
      f0      :     0.000176  f :     0.001975
      f+1     :     0.000472
      f-1     :     0.000007
      f+2     :     0.000480
      f-2     :     0.000134
      f+3     :     0.000346
      f-3     :     0.000361
  2 F s       :     3.556482  s :     3.556482
      pz      :     1.696306  p :     5.096876
      px      :     1.743468
      py      :     1.657102
      dz2     :     0.036555  d :     0.222649
      dxz     :     0.023048
      dyz     :     0.050831
      dx2y2   :     0.062456
      dxy     :     0.049758
      f0      :     0.000176  f :     0.001975
      f+1     :     0.000123
      f-1     :     0.000356
      f+2     :     0.000220
      f-2     :     0.000393
      f+3     :     0.000346
      f-3     :     0.000361
  3 F s       :     3.556482  s :     3.556482
      pz      :     1.696306  p :     5.096876
      px      :     1.743468
      py      :     1.657102
      dz2     :     0.036555  d :     0.222649
      dxz     :     0.023048
      dyz     :     0.050831
      dx2y2   :     0.062456
      dxy     :     0.049758
      f0      :     0.000176  f :     0.001975
      f+1     :     0.000123
      f-1     :     0.000356
      f+2     :     0.000220
      f-2     :     0.000393
      f+3     :     0.000346
      f-3     :     0.000361

SPIN
  0 C s       :     0.150846  s :     0.150846
      pz      :     0.401998  p :     0.413157
      px      :     0.005576
      py      :     0.005582
      dz2     :     0.058303  d :     0.049596
      dxz     :    -0.003719
      dyz     :    -0.003719
      dx2y2   :    -0.000636
      dxy     :    -0.000634
      f0      :     0.000741  f :     0.008061
      f+1     :    -0.000218
      f-1     :    -0.000217
      f+2     :    -0.000192
      f-2     :    -0.000191
      f+3     :     0.008135
      f-3     :     0.000003
  1 F s       :     0.015039  s :     0.015039
      pz      :     0.075064  p :     0.080395
      px      :     0.006007
      py      :    -0.000676
      dz2     :     0.008978  d :     0.030354
      dxz     :     0.020416
      dyz     :    -0.000167
      dx2y2   :     0.001123
      dxy     :     0.000004
      f0      :    -0.000000  f :     0.000336
      f+1     :     0.000250
      f-1     :     0.000001
      f+2     :     0.000059
      f-2     :     0.000001
      f+3     :     0.000022
      f-3     :     0.000003
  2 F s       :     0.015039  s :     0.015039
      pz      :     0.075053  p :     0.080379
      px      :     0.000996
      py      :     0.004329
      dz2     :     0.008978  d :     0.030355
      dxz     :     0.004978
      dyz     :     0.015270
      dx2y2   :     0.000284
      dxy     :     0.000844
      f0      :    -0.000000  f :     0.000336
      f+1     :     0.000063
      f-1     :     0.000188
      f+2     :     0.000016
      f-2     :     0.000045
      f+3     :     0.000022
      f-3     :     0.000003
  3 F s       :     0.015039  s :     0.015039
      pz      :     0.075053  p :     0.080379
      px      :     0.000996
      py      :     0.004329
      dz2     :     0.008978  d :     0.030355
      dxz     :     0.004978
      dyz     :     0.015270
      dx2y2   :     0.000284
      dxy     :     0.000844
      f0      :    -0.000000  f :     0.000336
      f+1     :     0.000063
      f-1     :     0.000188
      f+2     :     0.000016
      f-2     :     0.000045
      f+3     :     0.000022
      f-3     :     0.000003


                      *****************************
                      * MAYER POPULATION ANALYSIS *
                      *****************************

  NA   - Mulliken gross atomic population
  ZA   - Total nuclear charge
  QA   - Mulliken gross atomic charge
  VA   - Mayer's total valence
  BVA  - Mayer's bonded valence
  FA   - Mayer's free valence

  ATOM       NA         ZA         QA         VA         BVA        FA
  0 C      5.4413     6.0000     0.5587     3.7986     3.1699     0.6287
  1 F      9.1862     9.0000    -0.1862     1.0494     1.0454     0.0039
  2 F      9.1862     9.0000    -0.1862     1.0492     1.0453     0.0039
  3 F      9.1862     9.0000    -0.1862     1.0492     1.0453     0.0039

  Mayer bond orders larger than 0.100000
B(  0-C ,  1-F ) :   1.0567 B(  0-C ,  2-F ) :   1.0566 B(  0-C ,  3-F ) :   1.0566 


-------
TIMINGS
-------

Total SCF time: 0 days 0 hours 0 min 14 sec 

Total time                  ....      14.014 sec
Sum of individual times     ....      12.994 sec  ( 92.7%)

Fock matrix formation       ....      10.108 sec  ( 72.1%)
  Split-RI-J                ....       2.825 sec  ( 27.9% of F)
  Chain of spheres X        ....       2.610 sec  ( 25.8% of F)
  XC integration            ....       1.759 sec  ( 17.4% of F)
    Basis function eval.    ....       0.098 sec  (  5.6% of XC)
    Density eval.           ....       0.132 sec  (  7.5% of XC)
    XC-Functional eval.     ....       0.056 sec  (  3.2% of XC)
    XC-Potential eval.      ....       0.277 sec  ( 15.7% of XC)
Diagonalization             ....       0.274 sec  (  2.0%)
Density matrix formation    ....       0.021 sec  (  0.2%)
Population analysis         ....       0.121 sec  (  0.9%)
Initial guess               ....       1.477 sec  ( 10.5%)
Orbital Transformation      ....       0.000 sec  (  0.0%)
Orbital Orthonormalization  ....       0.000 sec  (  0.0%)
DIIS solution               ....       0.373 sec  (  2.7%)
Grid generation             ....       0.620 sec  (  4.4%)

Maximum memory used throughout the entire SCF-calculation: 63.2 MB


-------------------------------------------------------------------------------
                          DFT DISPERSION CORRECTION                            
                                                                               
                              DFTD3 V3.1  Rev 1                                
                              USING zero damping                               
-------------------------------------------------------------------------------
The omegaB97X-D3 functional is recognized. Fit by Chai et al.
Active option DFTDOPT                   ...         3   

molecular C6(AA) [au] = 165.618858 


            DFT-D V3
 parameters
 s6 scaling factor         :     1.0000 
 rs6 scaling factor        :     1.2810 
 s8 scaling factor         :     1.0000 
 rs8 scaling factor        :     1.0940 
 Damping factor alpha6     :    14.0000 
 Damping factor alpha8     :    16.0000 
 ad hoc parameters k1-k3   :    16.0000     1.3333    -4.0000 

 Edisp/kcal,au: -0.035190450666  -0.000056079547 
 E6   /kcal   :  -0.004471679 
 E8   /kcal   :  -0.030718772 
 % E8         :  87.292920190 

-------------------------   ----------------
Dispersion correction           -0.000056080
-------------------------   ----------------


-------------------------   --------------------
FINAL SINGLE POINT ENERGY      -337.614924185103
-------------------------   --------------------



           ************************************************************
           *        Program running with 18 parallel MPI-processes    *
           *              working on a common directory               *
           ************************************************************
------------------------------------------------------------------------------
                         ORCA SCF GRADIENT CALCULATION
------------------------------------------------------------------------------

 ... reading COSX grid (gridx3)
Gradient of the Kohn-Sham DFT energy:
Kohn-Sham wavefunction type      ... UKS
Hartree-Fock exchange scaling    ...    0.196
Number of operators              ...    2
Number of atoms                  ...    4
Basis set dimensions             ...  157
Integral neglect threshold       ... 2.5e-11
Integral primitive cutoff        ... 2.5e-12
SHARK Integral package           ... ON

Nuc. rep. gradient       (SHARK) ... done (  0.0 sec)
HCore & Overlap gradient (SHARK) ... done (  0.0 sec)
RI-J gradient            (SHARK) ... done (  0.6 sec)
COSX-gradient                    ... done (  0.4 sec)
Exchange-correlation gradient    ... done
Dispersion correction            ... done

------------------
CARTESIAN GRADIENT
------------------

WARNING: THERE ARE 3 CONSTRAINED CARTESIAN COORDINATES
   1   C   :    0.000022566   -0.000000129    0.081102473
   2   F   :   -0.035758490    0.000000053   -0.027207317
   3   F   :    0.018058188   -0.030409430   -0.026669298
   4   F   :    0.018058140    0.030409469   -0.026668896

Difference to translation invariance:
           :    0.0003804038   -0.0000000366    0.0005569621

Difference to rotation invariance:
           :   -0.0000006863    0.0008379767   -0.0000000174

Norm of the cartesian gradient     ...    0.1118957760
RMS gradient                       ...    0.0323015282
MAX gradient                       ...    0.0811024734

-------
TIMINGS
-------

Total SCF gradient time            ...        1.593 sec

One electron gradient       ....       0.013 sec  (  0.8%)
RI-J Coulomb gradient       ....       0.600 sec  ( 37.7%)
COSX gradient               ....       0.433 sec  ( 27.2%)
XC gradient                 ....       0.160 sec  ( 10.0%)

Maximum memory used throughout the entire SCFGRAD-calculation: 37.2 MB
------------------------------------------------------------------------------
                         ORCA GEOMETRY RELAXATION STEP
------------------------------------------------------------------------------

Reading the OPT-File                    .... done
Getting information on internals        .... done
Copying old internal coords+grads       .... done
Making the new internal coordinates     .... (new redundants).... done
Validating the new internal coordinates .... (new redundants).... done
Calculating the B-matrix                .... done
Calculating the G,G- and P matrices     .... done
Transforming gradient to internals      .... done
Projecting the internal gradient        .... done
Number of atoms                         ....   4
Number of internal coordinates          ....   7
Current Energy                          ....  -337.614924185 Eh
Current gradient norm                   ....     0.111895776 Eh/bohr
Maximum allowed component of the step   ....  0.300
Current trust radius                    ....  0.300
Evaluating the initial hessian          ....  (Almloef) done
Projecting the Hessian                  .... done
Forming the augmented Hessian           .... done
Diagonalizing the augmented Hessian     .... done
Last element of RFO vector              ....  0.998625394
Lowest eigenvalues of augmented Hessian:
 -0.001892026  0.684895726  0.684895726  0.686787752 1000.000000000
Length of the computed step             ....  0.052487065
The final length of the internal step   ....  0.052487065
Converting the step to cartesian space:
 Initial RMS(Int)=    0.0198382459
Transforming coordinates:
 Iter   0:  RMS(Cart)=    0.0141057502 RMS(Int)=    0.0198382470
 Iter   1:  RMS(Cart)=    0.0000000032 RMS(Int)=    0.0000000057
Imposing constraints:
 Iter   0:  RMS(Cart)=    0.0000000015 RMS(Int)=    0.0000000024
CONVERGED
done
Storing new coordinates                 .... done

                                .--------------------.
          ----------------------|Geometry convergence|-------------------------
          Item                value                   Tolerance       Converged
          ---------------------------------------------------------------------
          RMS gradient        0.0136246643            0.0001000000      NO
          MAX gradient        0.0210803143            0.0003000000      NO
          RMS step            0.0198382459            0.0020000000      NO
          MAX step            0.0306940744            0.0040000000      NO
          ........................................................
          Max(Bonds)      0.0162      Max(Angles)    0.00
          Max(Dihed)        0.00      Max(Improp)    0.00
          ---------------------------------------------------------------------

The optimization has not yet converged - more geometry cycles are needed


    ---------------------------------------------------------------------------
                         Redundant Internal Coordinates
                            (Angstroem and degrees)

        Definition                    Value    dE/dq     Step     New-Value
    ----------------------------------------------------------------------------
     1. B(F   1,C   0)                1.3150 -0.021080  0.0162    1.3312   
     2. B(F   2,C   0)                1.3150 -0.020677  0.0159    1.3309   
     3. B(F   3,C   0)                1.3150 -0.020677  0.0159    1.3309   
     4. A(F   2,C   0,F   3)          103.50 -0.065521   -0.00    103.50 C 
     5. A(F   1,C   0,F   2)          103.50 -0.028360   -0.00    103.50 C 
     6. A(F   1,C   0,F   3)          103.50 -0.028360    0.00    103.50 C 
     7. I(F   1,F   3,F   2,C   0)     67.85  0.065013    0.00     67.85   
    ----------------------------------------------------------------------------

         *************************************************************
         *                GEOMETRY OPTIMIZATION CYCLE   2            *
         *************************************************************
---------------------------------
CARTESIAN COORDINATES (ANGSTROEM)
---------------------------------
  C     -0.000091    0.000000    0.005070
  F      1.207115    0.000000   -0.556054
  F     -0.603512    1.045203   -0.556012
  F     -0.603512   -1.045203   -0.556012

----------------------------
CARTESIAN COORDINATES (A.U.)
----------------------------
  NO LB      ZA    FRAG     MASS         X           Y           Z
   0 C     6.0000    0    12.011   -0.000172    0.000000    0.009580
   1 F     9.0000    0    18.998    2.281117    0.000000   -1.050790
   2 F     9.0000    0    18.998   -1.140472    1.975147   -1.050710
   3 F     9.0000    0    18.998   -1.140472   -1.975148   -1.050710

--------------------------------
INTERNAL COORDINATES (ANGSTROEM)
--------------------------------
 C      0   0   0     0.000000000000     0.00000000     0.00000000
 F      1   0   0     1.331242604613     0.00000000     0.00000000
 F      1   2   0     1.330931474356   103.50000008     0.00000000
 F      1   2   3     1.330931548673   103.50000008   107.73039861

---------------------------
INTERNAL COORDINATES (A.U.)
---------------------------
 C      0   0   0     0.000000000000     0.00000000     0.00000000
 F      1   0   0     2.515683940526     0.00000000     0.00000000
 F      1   2   0     2.515095989548   103.50000008     0.00000000
 F      1   2   3     2.515096129987   103.50000008   107.73039861



           ************************************************************
           *        Program running with 18 parallel MPI-processes    *
           *              working on a common directory               *
           ************************************************************
------------------------------------------------------------------------------
                   ___                                                        
                  /   \      - P O W E R E D   B Y -                         
                 /     \                                                     
                 |  |  |   _    _      __       _____    __    __             
                 |  |  |  | |  | |    /  \     |  _  \  |  |  /  |          
                  \  \/   | |  | |   /    \    | | | |  |  | /  /          
                 / \  \   | |__| |  /  /\  \   | |_| |  |  |/  /          
                |  |  |   |  __  | /  /__\  \  |    /   |      \           
                |  |  |   | |  | | |   __   |  |    \   |  |\   \          
                \     /   | |  | | |  |  |  |  | |\  \  |  | \   \       
                 \___/    |_|  |_| |__|  |__|  |_| \__\ |__|  \__/        
                                                                              
                      - O R C A' S   B I G   F R I E N D -                    
                                      &                                       
                       - I N T E G R A L  F E E D E R -                       
                                                                              
 v1 FN, 2020, v2 2021                                                         
------------------------------------------------------------------------------


Reading SHARK input file /beegfs/scratch/ispackman/PFAS_EPR_calcs/benchmark/JChemEd_CF3_radical/CF3_radical_103.5_degrees_IN-PROGRESS/CF3_radical_103.5_degrees.SHARKINP.tmp ... ok
----------------------
SHARK INTEGRAL PACKAGE
----------------------

Number of atoms                             ...      4
Number of basis functions                   ...    157
Number of shells                            ...     55
Maximum angular momentum                    ...      3
Integral batch strategy                     ... SHARK/LIBINT Hybrid
RI-J (if used) integral strategy            ... SPLIT-RIJ (Revised 2003 algorithm where possible)
Printlevel                                  ...      1
Contraction scheme used                     ... SEGMENTED contraction
Coulomb Range Separation                    ... NOT USED
Exchange Range Separation                   ... Long Range
   Mu parameter                             ...  0.250000
   Scaling (regular/separated)              ...  0.195728  0.804272
Finite Nucleus Model                        ... NOT USED
Auxiliary Coulomb fitting basis             ... AVAILABLE
   # of basis functions in Aux-J            ...    196
   # of shells in Aux-J                     ...     60
   Maximum angular momentum in Aux-J        ...      4
Auxiliary J/K fitting basis                 ... NOT available
Auxiliary Correlation fitting basis         ... NOT available
Auxiliary 'external' fitting basis          ... NOT available
Integral threshold                          ...     2.500000e-11
Primitive cut-off                           ...     2.500000e-12
Primitive pair pre-selection threshold      ...     2.500000e-12

Calculating pre-screening integrals         ... done (  0.0 sec) Dimension = 55
Organizing shell pair data                  ... done (  0.0 sec)
Shell pair information
Total number of shell pairs                 ...      1540
Shell pairs after pre-screening             ...      1504
Total number of primitive shell pairs       ...      4274
Primitive shell pairs kept                  ...      3542
          la=0 lb=0:    282 shell pairs
          la=1 lb=0:    354 shell pairs
          la=1 lb=1:    120 shell pairs
          la=2 lb=0:    276 shell pairs
          la=2 lb=1:    180 shell pairs
          la=2 lb=2:     78 shell pairs
          la=3 lb=0:     96 shell pairs
          la=3 lb=1:     60 shell pairs
          la=3 lb=2:     48 shell pairs
          la=3 lb=3:     10 shell pairs

Calculating one electron integrals          ... done (  0.0 sec)
Calculating RI/J V-Matrix + Cholesky decomp.... done (  0.0 sec)
Calculating Nuclear repulsion               ... done (  0.0 sec) ENN=    125.915641577351 Eh

SHARK setup successfully completed in   0.3 seconds

Maximum memory used throughout the entire GTOINT-calculation: 15.2 MB


           ************************************************************
           *        Program running with 18 parallel MPI-processes    *
           *              working on a common directory               *
           ************************************************************

Diagonalization of the overlap matrix:
Smallest eigenvalue                        ... 3.811e-04
Time for diagonalization                   ...    0.008 sec
Threshold for overlap eigenvalues          ... 1.000e-08
Number of eigenvalues below threshold      ... 0
Time for construction of square roots      ...    0.015 sec
Total time needed                          ...    0.024 sec

-------------------
DFT GRID GENERATION
-------------------

General Integration Accuracy     IntAcc      ... 4.388
Radial Grid Type                 RadialGrid  ... OptM3 with GC (2021)
Angular Grid (max. ang.)         AngularGrid ... 4 (Lebedev-302)
Angular grid pruning method      GridPruning ... 4 (adaptive)
Weight generation scheme         WeightScheme... Becke
Basis function cutoff            BFCut       ... 1.0000e-11
Integration weight cutoff        WCut        ... 1.0000e-14
Angular grids for H and He will be reduced by one unit
Partially contracted basis set               ... off
Rotationally invariant grid construction     ... off

Total number of grid points                  ...    25781
Total number of batches                      ...      405
Average number of points per batch           ...       63
Average number of grid points per atom       ...     6445
Time for grid setup =    0.166 sec

--------------------
COSX GRID GENERATION
--------------------

GRIDX 1
-------
General Integration Accuracy     IntAcc      ... 3.816
Radial Grid Type                 RadialGrid  ... OptM3 with GC (2021)
Angular Grid (max. ang.)         AngularGrid ... 1 (Lebedev-50)
Angular grid pruning method      GridPruning ... 4 (adaptive)
Weight generation scheme         WeightScheme... Becke
Basis function cutoff            BFCut       ... 1.0000e-11
Integration weight cutoff        WCut        ... 1.0000e-14
Angular grids for H and He will be reduced by one unit
Partially contracted basis set               ... on
Rotationally invariant grid construction     ... off

Total number of grid points                  ...     3272
Total number of batches                      ...       53
Average number of points per batch           ...       61
Average number of grid points per atom       ...      818
UseSFitting                                  ... on

GRIDX 2
-------
General Integration Accuracy     IntAcc      ... 4.020
Radial Grid Type                 RadialGrid  ... OptM3 with GC (2021)
Angular Grid (max. ang.)         AngularGrid ... 2 (Lebedev-110)
Angular grid pruning method      GridPruning ... 4 (adaptive)
Weight generation scheme         WeightScheme... Becke
Basis function cutoff            BFCut       ... 1.0000e-11
Integration weight cutoff        WCut        ... 1.0000e-14
Angular grids for H and He will be reduced by one unit
Partially contracted basis set               ... on
Rotationally invariant grid construction     ... off

Total number of grid points                  ...     9111
Total number of batches                      ...      144
Average number of points per batch           ...       63
Average number of grid points per atom       ...     2278
UseSFitting                                  ... on

GRIDX 3
-------
General Integration Accuracy     IntAcc      ... 4.338
Radial Grid Type                 RadialGrid  ... OptM3 with GC (2021)
Angular Grid (max. ang.)         AngularGrid ... 3 (Lebedev-194)
Angular grid pruning method      GridPruning ... 4 (adaptive)
Weight generation scheme         WeightScheme... Becke
Basis function cutoff            BFCut       ... 1.0000e-11
Integration weight cutoff        WCut        ... 1.0000e-14
Angular grids for H and He will be reduced by one unit
Partially contracted basis set               ... on
Rotationally invariant grid construction     ... off

Total number of grid points                  ...    19673
Total number of batches                      ...      310
Average number of points per batch           ...       63
Average number of grid points per atom       ...     4918
UseSFitting                                  ... on

Time for X-Grid setup             =    0.352 sec

--------------
SCF ITERATIONS
--------------
[...]
  VA   - Mayer's total valence
  BVA  - Mayer's bonded valence
  FA   - Mayer's free valence

  ATOM       NA         ZA         QA         VA         BVA        FA
  0 C      5.4577     6.0000     0.5423     3.7927     3.1691     0.6236
  1 F      9.1809     9.0000    -0.1809     1.0545     1.0502     0.0043
  2 F      9.1807     9.0000    -0.1807     1.0547     1.0504     0.0043
  3 F      9.1807     9.0000    -0.1807     1.0547     1.0504     0.0043

  Mayer bond orders larger than 0.100000
B(  0-C ,  1-F ) :   1.0562 B(  0-C ,  2-F ) :   1.0565 B(  0-C ,  3-F ) :   1.0565 


-------
TIMINGS
-------

Total SCF time: 0 days 0 hours 0 min 5 sec 

Total time                  ....       5.858 sec
Sum of individual times     ....       5.228 sec  ( 89.2%)

Fock matrix formation       ....       4.323 sec  ( 73.8%)
  Split-RI-J                ....       0.630 sec  ( 14.6% of F)
  Chain of spheres X        ....       1.747 sec  ( 40.4% of F)
  XC integration            ....       0.845 sec  ( 19.5% of F)
    Basis function eval.    ....       0.053 sec  (  6.3% of XC)
    Density eval.           ....       0.066 sec  (  7.8% of XC)
    XC-Functional eval.     ....       0.028 sec  (  3.3% of XC)
    XC-Potential eval.      ....       0.112 sec  ( 13.3% of XC)
Diagonalization             ....       0.150 sec  (  2.6%)
Density matrix formation    ....       0.008 sec  (  0.1%)
Population analysis         ....       0.121 sec  (  2.1%)
Initial guess               ....       0.021 sec  (  0.4%)
Orbital Transformation      ....       0.000 sec  (  0.0%)
Orbital Orthonormalization  ....       0.012 sec  (  0.2%)
DIIS solution               ....       0.137 sec  (  2.3%)
Grid generation             ....       0.468 sec  (  8.0%)

Maximum memory used throughout the entire SCF-calculation: 63.2 MB


-------------------------------------------------------------------------------
                          DFT DISPERSION CORRECTION                            
                                                                               
                              DFTD3 V3.1  Rev 1                                
                              USING zero damping                               
-------------------------------------------------------------------------------
The omegaB97X-D3 functional is recognized. Fit by Chai et al.
Active option DFTDOPT                   ...         3   

molecular C6(AA) [au] = 165.669231 


            DFT-D V3
 parameters
 s6 scaling factor         :     1.0000 
 rs6 scaling factor        :     1.2810 
 s8 scaling factor         :     1.0000 
 rs8 scaling factor        :     1.0940 
 Damping factor alpha6     :    14.0000 
 Damping factor alpha8     :    16.0000 
 ad hoc parameters k1-k3   :    16.0000     1.3333    -4.0000 

 Edisp/kcal,au: -0.039432090906  -0.000062839030 
 E6   /kcal   :  -0.005017382 
 E8   /kcal   :  -0.034414709 
 % E8         :  87.275891853 

-------------------------   ----------------
Dispersion correction           -0.000062839
-------------------------   ----------------


-------------------------   --------------------
FINAL SINGLE POINT ENERGY      -337.616005926565
-------------------------   --------------------

                                *** OPTIMIZATION RUN DONE ***

                            ***************************************
                            *     ORCA property calculations      *
                            ***************************************

                                    ---------------------
                                    Active property flags
                                    ---------------------
   (+) Dipole Moment


------------------------------------------------------------------------------
                       ORCA ELECTRIC PROPERTIES CALCULATION
------------------------------------------------------------------------------

Dipole Moment Calculation                       ... on
Quadrupole Moment Calculation                   ... off
Polarizability Calculation                      ... off
GBWName                                         ... /beegfs/scratch/ispackman/PFAS_EPR_calcs/benchmark/JChemEd_CF3_radical/CF3_radical_103.5_degrees_IN-PROGRESS/CF3_radical_103.5_degrees.gbw
Electron density                                ... /beegfs/scratch/ispackman/PFAS_EPR_calcs/benchmark/JChemEd_CF3_radical/CF3_radical_103.5_degrees_IN-PROGRESS/CF3_radical_103.5_degrees.scfp
The origin for moment calculation is the CENTER OF MASS  = ( 0.000032, -0.000000 -0.866360)

-------------
DIPOLE MOMENT
-------------
                                X             Y             Z
Electronic contribution:     -0.00109       0.00000       0.05487
Nuclear contribution   :     -0.00011       0.00000       0.27208
                        -----------------------------------------
Total Dipole Moment    :     -0.00120       0.00000       0.32695
                        -----------------------------------------
Magnitude (a.u.)       :      0.32696
Magnitude (Debye)      :      0.83106



--------------------
Rotational spectrum 
--------------------
 
Rotational constants in cm-1:     0.376050     0.375848     0.202116 
Rotational constants in MHz : 11273.692944 11267.644405  6059.283803 

 Dipole components along the rotational axes: 
x,y,z [a.u.] :     0.001225     0.000000     0.326955 
x,y,z [Debye]:     0.003115     0.000001     0.831052 

 


           ************************************************************
           *        Program running with 18 parallel MPI-processes    *
           *              working on a common directory               *
           ************************************************************

-------------------------------------------------------------------------------
                               ORCA SCF HESSIAN
-------------------------------------------------------------------------------

                   --------- SHARK INITIALIZATION DONE ---------

Hessian of the Kohn-Sham DFT energy:
Kohn-Sham wavefunction type                      ... UKS
Hartree-Fock exchange scaling                    ...    0.196
Number of operators                              ...    2
Number of atoms                                  ...    4
Basis set dimensions                             ...  157
Integral neglect threshold                       ... 2.5e-11
Integral primitive cutoff                        ... 2.5e-12

Setting up DFT Hessian calculations              ... 

HESS GRID
---------

General Integration Accuracy     IntAcc      ... 4.629
Radial Grid Type                 RadialGrid  ... OptM3 with GC (2021)
Angular Grid (max. ang.)         AngularGrid ... 5 (Lebedev-434)
Angular grid pruning method      GridPruning ... 4 (adaptive)
Weight generation scheme         WeightScheme... Becke
Basis function cutoff            BFCut       ... 1.0000e-11
Integration weight cutoff        WCut        ... 1.0000e-14
Angular grids for H and He will be reduced by one unit
Partially contracted basis set               ... off
Rotationally invariant grid construction     ... off

Total number of grid points                  ...    39970
Total number of batches                      ...      627
Average number of points per batch           ...       63
Average number of grid points per atom       ...     9992

Building densities                               ... done   (      0.0 sec)
Calculating rho(r) on the grid                   ... done   (      0.2 sec)
Building xc-kernel on the grid                   ... done   (      0.1 sec)
                                                     done   (      0.7 sec)

Nuclear repulsion Hessian  (SHARK)               ... done   (      0.0 sec)

----------------------------------------------
Forming right-hand sides of CP-SCF equations     ...
----------------------------------------------
One electron integral derivatives  (SHARK)       ... done   (      0.0 sec)
Transforming the overlap derivative matrices     ... done   (      0.0 sec)
Making the Q(x) pseudodensities                  ... done   (      0.0 sec)
Adding the E*S(x)*S(y) terms to the Hessian      ... done   (      0.0 sec)
Calculating energy weighted overlap derivatives  ... done   (      0.0 sec)
Two electron integral derivatives (SHARK-RI)     ... done   (      2.4 sec)
Exchange-correlation integral derivatives        ... done   (      2.3 sec)
tr(F(y)Q(x)) contribution to the Hessian         ... done   (      0.0 sec)
Response fock operator R(S(x)) (SHARK-RIJCOSX)   ... done   (      0.9 sec)
XC Response fock operator R(S(x))                ... done   (      0.4 sec)
tr(F(y)S(x)) contribution to the Hessian         ... done   (      0.0 sec)
Transforming and finalizing RHSs                 ... done   (      0.0 sec)

----------------------------------------------
Solving the CP-SCF equations (RIJCOSX)           ...
----------------------------------------------
     CP-SCF ITERATION   0:   1.5959e-01 (   0.5 sec   0/ 12 done)
     CP-SCF ITERATION   1:   4.8109e-02 (   0.5 sec   0/ 12 done)
     CP-SCF ITERATION   2:   1.6706e-02 (   0.4 sec   0/ 12 done)
     CP-SCF ITERATION   3:   4.7163e-03 (   0.5 sec   0/ 12 done)
     CP-SCF ITERATION   4:   1.6675e-03 (   0.5 sec   0/ 12 done)
     CP-SCF ITERATION   5:   6.9344e-04 (   0.4 sec   1/ 12 done)
     CP-SCF ITERATION   6:   1.9718e-04 (   0.4 sec   3/ 12 done)
     CP-SCF ITERATION   7:   4.2151e-05 (   0.5 sec  12/ 12 done)
                    *** THE CP-SCF HAS CONVERGED ***

                                                 ... done   (      3.9 sec)
Forming perturbed density Hessian contributions  ... done   (      0.0 sec)
2nd integral derivative contribs (SHARK-RI)      ... done   (      6.4 sec)
Exchange-correlation Hessian                     ... done   (      0.9 sec)
Dispersion correction in the Hessian             ... done   (      0.1 sec)
Dipole derivatives                               ... (center of mass:  0.000032, -0.000000 -0.866360)done   (      0.1 sec)

Total SCF Hessian time: 0 days 0 hours 0 min 18 sec 

Writing the Hessian file to the disk             ... done


Maximum memory used throughout the entire SCFHESS-calculation: 143.9 MB

-----------------------
VIBRATIONAL FREQUENCIES
-----------------------

Scaling factor for frequencies =  1.000000000  (already applied!)

   0:         0.00 cm**-1
   1:         0.00 cm**-1
   2:         0.00 cm**-1
   3:         0.00 cm**-1
   4:         0.00 cm**-1
   5:         0.00 cm**-1
   6:       559.75 cm**-1
   7:       559.87 cm**-1
   8:       758.60 cm**-1
   9:      1114.44 cm**-1
  10:      1137.05 cm**-1
  11:      1139.08 cm**-1


------------
NORMAL MODES
------------

These modes are the Cartesian displacements weighted by the diagonal matrix
M(i,i)=1/sqrt(m[i]) where m[i] is the mass of the displaced atom
Thus, these vectors are normalized but *not* orthogonal

                  0          1          2          3          4          5    
      0       0.000000   0.000000   0.000000   0.000000   0.000000   0.000000
      1       0.000000   0.000000   0.000000   0.000000   0.000000   0.000000
      2       0.000000   0.000000   0.000000   0.000000   0.000000   0.000000
      3       0.000000   0.000000   0.000000   0.000000   0.000000   0.000000
      4       0.000000   0.000000   0.000000   0.000000   0.000000   0.000000
      5       0.000000   0.000000   0.000000   0.000000   0.000000   0.000000
      6       0.000000   0.000000   0.000000   0.000000   0.000000   0.000000
      7       0.000000   0.000000   0.000000   0.000000   0.000000   0.000000
      8       0.000000   0.000000   0.000000   0.000000   0.000000   0.000000
      9       0.000000   0.000000   0.000000   0.000000   0.000000   0.000000
     10       0.000000   0.000000   0.000000   0.000000   0.000000   0.000000
     11       0.000000   0.000000   0.000000   0.000000   0.000000   0.000000
                  6          7          8          9         10         11    
      0      -0.309137   0.000418   0.000661  -0.038043  -0.888777   0.000117
      1      -0.000418  -0.309064   0.000000   0.000003  -0.000117  -0.889512
      2      -0.000303   0.000001   0.570571   0.833889  -0.033582   0.000007
      3      -0.478762   0.000647  -0.458636   0.278314   0.315020  -0.000041
      4       0.000823   0.608563  -0.000000  -0.000000   0.000006   0.048669
      5      -0.060475   0.000082  -0.120049  -0.183134  -0.167049   0.000021
      6       0.337739   0.470325   0.229109  -0.127131   0.123427  -0.120185
      7       0.470064  -0.207218  -0.397332   0.224351  -0.129587   0.256869
      8       0.030262  -0.052513  -0.120340  -0.172035   0.094120  -0.150966
      9       0.336466  -0.471237   0.229109  -0.127131   0.123459   0.120152
     10      -0.470623  -0.205946   0.397331  -0.224352   0.129654   0.256834
     11       0.030404   0.052430  -0.120340  -0.172036   0.094160   0.150941


-----------
IR SPECTRUM
-----------

 Mode   freq       eps      Int      T**2         TX        TY        TZ
       cm**-1   L/(mol*cm) km/mol    a.u.
----------------------------------------------------------------------------
  6:    559.75   0.000294    1.48  0.000164  (-0.012798 -0.000017 -0.000025)
  7:    559.87   0.000294    1.49  0.000164  ( 0.000017 -0.012806  0.000000)
  8:    758.60   0.002459   12.43  0.001011  ( 0.000101 -0.000000  0.031803)
  9:   1114.44   0.009449   47.75  0.002646  (-0.005598  0.000000  0.051132)
 10:   1137.05   0.064579  326.35  0.017724  (-0.133113 -0.000017 -0.002120)
 11:   1139.08   0.064618  326.55  0.017703  ( 0.000017 -0.133052  0.000000)

* The epsilon (eps) is given for a Dirac delta lineshape.
** The dipole moment derivative (T) already includes vibrational overlap.

The first frequency considered to be a vibration is 6
The total number of vibrations considered is 6


--------------------------
THERMOCHEMISTRY AT 298.15K
--------------------------

Temperature         ... 298.15 K
Pressure            ... 1.00 atm
Total Mass          ... 69.00 AMU

Throughout the following assumptions are being made:
  (1) The electronic state is orbitally nondegenerate
      but the spin degeneracy is treated
  (2) There are no thermally accessible electronically excited states
  (3) Hindered rotations indicated by low frequency modes are not
      treated as such but are treated as vibrations and this may
      cause some error
  (4) All equations used are the standard statistical mechanics
      equations for an ideal gas
  (5) All vibrations are strictly harmonic

freq.     559.75  E(vib)   ...       0.12 
freq.     559.87  E(vib)   ...       0.12 
freq.     758.60  E(vib)   ...       0.06 
freq.    1114.44  E(vib)   ...       0.01 
freq.    1137.05  E(vib)   ...       0.01 
freq.    1139.08  E(vib)   ...       0.01 

------------
INNER ENERGY
------------

The inner energy is: U= E(el) + E(ZPE) + E(vib) + E(rot) + E(trans)
    E(el)   - is the total energy from the electronic structure calculation
              = E(kin-el) + E(nuc-el) + E(el-el) + E(nuc-nuc)
    E(ZPE)  - the the zero temperature vibrational energy from the frequency calculation
    E(vib)  - the the finite temperature correction to E(ZPE) due to population
              of excited vibrational states
    E(rot)  - is the rotational thermal energy
    E(trans)- is the translational thermal energy

Summary of contributions to the inner energy U:
Electronic energy                ...   -337.61600593 Eh
Zero point energy                ...      0.01200317 Eh       7.53 kcal/mol
Thermal vibrational correction   ...      0.00052469 Eh       0.33 kcal/mol
Thermal rotational correction    ...      0.00141627 Eh       0.89 kcal/mol
Thermal translational correction ...      0.00141627 Eh       0.89 kcal/mol
-----------------------------------------------------------------------
Total thermal energy                   -337.60064552 Eh


Summary of corrections to the electronic energy:
(perhaps to be used in another calculation)
Total thermal correction                  0.00335723 Eh       2.11 kcal/mol
Non-thermal (ZPE) correction              0.01200317 Eh       7.53 kcal/mol
-----------------------------------------------------------------------
Total correction                          0.01536040 Eh       9.64 kcal/mol


--------
ENTHALPY
--------

The enthalpy is H = U + kB*T
                kB is Boltzmann's constant
Total free energy                 ...   -337.60064552 Eh 
Thermal Enthalpy correction       ...      0.00094421 Eh       0.59 kcal/mol
-----------------------------------------------------------------------
Total Enthalpy                    ...   -337.59970132 Eh


Note: Rotational entropy computed according to Herzberg 
Infrared and Raman Spectra, Chapter V,1, Van Nostrand Reinhold, 1945 
Point Group:  Cs, Symmetry Number:   1  
Rotational constants in cm-1:     0.376050     0.375848     0.202116 

Vibrational entropy computed according to the QRRHO of S. Grimme
Chem.Eur.J. 2012 18 9955


-------
ENTROPY
-------

The entropy contributions are T*S = T*(S(el)+S(vib)+S(rot)+S(trans))
     S(el)   - electronic entropy
     S(vib)  - vibrational entropy
     S(rot)  - rotational entropy
     S(trans)- translational entropy
The entropies will be listed as multiplied by the temperature to get
units of energy

Electronic entropy                ...      0.00065446 Eh      0.41 kcal/mol
Vibrational entropy               ...      0.00069335 Eh      0.44 kcal/mol
Rotational entropy                ...      0.01118934 Eh      7.02 kcal/mol
Translational entropy             ...      0.01834582 Eh     11.51 kcal/mol
-----------------------------------------------------------------------
Final entropy term                ...      0.03088296 Eh     19.38 kcal/mol

In case the symmetry of your molecule has not been determined correctly
or in case you have a reason to use a different symmetry number we print 
out the resulting rotational entropy values for sn=1,12 :
 --------------------------------------------------------
|  sn= 1 | S(rot)=       0.01118934 Eh      7.02 kcal/mol|
|  sn= 2 | S(rot)=       0.01053488 Eh      6.61 kcal/mol|
|  sn= 3 | S(rot)=       0.01015205 Eh      6.37 kcal/mol|
|  sn= 4 | S(rot)=       0.00988042 Eh      6.20 kcal/mol|
|  sn= 5 | S(rot)=       0.00966974 Eh      6.07 kcal/mol|
|  sn= 6 | S(rot)=       0.00949759 Eh      5.96 kcal/mol|
|  sn= 7 | S(rot)=       0.00935204 Eh      5.87 kcal/mol|
|  sn= 8 | S(rot)=       0.00922597 Eh      5.79 kcal/mol|
|  sn= 9 | S(rot)=       0.00911476 Eh      5.72 kcal/mol|
|  sn=10 | S(rot)=       0.00901528 Eh      5.66 kcal/mol|
|  sn=11 | S(rot)=       0.00892529 Eh      5.60 kcal/mol|
|  sn=12 | S(rot)=       0.00884313 Eh      5.55 kcal/mol|
 --------------------------------------------------------


-------------------
GIBBS FREE ENERGY
-------------------

The Gibbs free energy is G = H - T*S

Total enthalpy                    ...   -337.59970132 Eh 
Total entropy correction          ...     -0.03088296 Eh    -19.38 kcal/mol
-----------------------------------------------------------------------
Final Gibbs free energy         ...   -337.63058427 Eh

For completeness - the Gibbs free energy minus the electronic energy
G-E(el)                           ...     -0.01457834 Eh     -9.15 kcal/mol


Timings for individual modules:

Sum of individual times         ...      133.089 sec (=   2.218 min)
GTO integral calculation        ...       41.257 sec (=   0.688 min)  31.0 %
SCF iterations                  ...       54.936 sec (=   0.916 min)  41.3 %
SCF Gradient evaluation         ...       14.986 sec (=   0.250 min)  11.3 %
Geometry relaxation             ...        0.221 sec (=   0.004 min)   0.2 %
Analytical frequency calculation...       21.689 sec (=   0.361 min)  16.3 %
                             ****ORCA TERMINATED NORMALLY****
TOTAL RUN TIME: 0 days 0 hours 2 minutes 24 seconds 324 msec

slurmID:    32260047
totalRuntime[s]:    144.365005308
