
                                 *****************
                                 * O   R   C   A *
                                 *****************

                                            #,                                       
                                            ###                                      
                                            ####                                     
                                            #####                                    
                                            ######                                   
                                           ########,                                 
                                     ,,################,,,,,                         
                               ,,#################################,,                 
                          ,,##########################################,,             
                       ,#########################################, ''#####,          
                    ,#############################################,,   '####,        
                  ,##################################################,,,,####,       
                ,###########''''           ''''###############################       
              ,#####''   ,,,,##########,,,,          '''####'''          '####       
            ,##' ,,,,###########################,,,                        '##       
           ' ,,###''''                  '''############,,,                           
         ,,##''                                '''############,,,,        ,,,,,,###''
      ,#''                                            '''#######################'''  
     '                                                          ''''####''''         
             ,#######,   #######,   ,#######,      ##                                
            ,#'     '#,  ##    ##  ,#'     '#,    #''#        ######   ,####,        
            ##       ##  ##   ,#'  ##            #'  '#       #        #'  '#        
            ##       ##  #######   ##           ,######,      #####,   #    #        
            '#,     ,#'  ##    ##  '#,     ,#' ,#      #,         ##   #,  ,#        
             '#######'   ##     ##  '#######'  #'      '#     #####' # '####'        



                  #######################################################
                  #                        -***-                        #
                  #          Department of theory and spectroscopy      #
                  #    Directorship and core code : Frank Neese         #
                  #        Max Planck Institute fuer Kohlenforschung    #
                  #                Kaiser Wilhelm Platz 1               #
                  #                 D-45470 Muelheim/Ruhr               #
                  #                      Germany                        #
                  #                                                     #
                  #                  All rights reserved                #
                  #                        -***-                        #
                  #######################################################


                         Program Version 5.0.4 -  RELEASE  -


 With contributions from (in alphabetic order):
   Daniel Aravena         : Magnetic Suceptibility
   Michael Atanasov       : Ab Initio Ligand Field Theory (pilot matlab implementation)
   Alexander A. Auer      : GIAO ZORA, VPT2 properties, NMR spectrum
   Ute Becker             : Parallelization
   Giovanni Bistoni       : ED, misc. LED, open-shell LED, HFLD
   Martin Brehm           : Molecular dynamics
   Dmytro Bykov           : SCF Hessian
   Vijay G. Chilkuri      : MRCI spin determinant printing, contributions to CSF-ICE
   Dipayan Datta          : RHF DLPNO-CCSD density
   Achintya Kumar Dutta   : EOM-CC, STEOM-CC
   Dmitry Ganyushin       : Spin-Orbit,Spin-Spin,Magnetic field MRCI
   Miquel Garcia          : C-PCM and meta-GGA Hessian, CC/C-PCM, Gaussian charge scheme
   Yang Guo               : DLPNO-NEVPT2, F12-NEVPT2, CIM, IAO-localization
   Andreas Hansen         : Spin unrestricted coupled pair/coupled cluster methods
   Benjamin Helmich-Paris : MC-RPA, TRAH-SCF, COSX integrals
   Lee Huntington         : MR-EOM, pCC
   Robert Izsak           : Overlap fitted RIJCOSX, COSX-SCS-MP3, EOM
   Marcus Kettner         : VPT2
   Christian Kollmar      : KDIIS, OOCD, Brueckner-CCSD(T), CCSD density, CASPT2, CASPT2-K
   Simone Kossmann        : Meta GGA functionals, TD-DFT gradient, OOMP2, MP2 Hessian
   Martin Krupicka        : Initial AUTO-CI
   Lucas Lang             : DCDCAS
   Marvin Lechner         : AUTO-CI (C++ implementation), FIC-MRCC
   Dagmar Lenk            : GEPOL surface, SMD
   Dimitrios Liakos       : Extrapolation schemes; Compound Job, initial MDCI parallelization
   Dimitrios Manganas     : Further ROCIS development; embedding schemes
   Dimitrios Pantazis     : SARC Basis sets
   Anastasios Papadopoulos: AUTO-CI, single reference methods and gradients
   Taras Petrenko         : DFT Hessian,TD-DFT gradient, ASA, ECA, R-Raman, ABS, FL, XAS/XES, NRVS
   Peter Pinski           : DLPNO-MP2, DLPNO-MP2 Gradient
   Christoph Reimann      : Effective Core Potentials
   Marius Retegan         : Local ZFS, SOC
   Christoph Riplinger    : Optimizer, TS searches, QM/MM, DLPNO-CCSD(T), (RO)-DLPNO pert. Triples
   Tobias Risthaus        : Range-separated hybrids, TD-DFT gradient, RPA, STAB
   Michael Roemelt        : Original ROCIS implementation
   Masaaki Saitow         : Open-shell DLPNO-CCSD energy and density
   Barbara Sandhoefer     : DKH picture change effects
   Avijit Sen             : IP-ROCIS
   Kantharuban Sivalingam : CASSCF convergence, NEVPT2, FIC-MRCI
   Bernardo de Souza      : ESD, SOC TD-DFT
   Georgi Stoychev        : AutoAux, RI-MP2 NMR, DLPNO-MP2 response
   Willem Van den Heuvel  : Paramagnetic NMR
   Boris Wezisla          : Elementary symmetry handling
   Frank Wennmohs         : Technical directorship


 We gratefully acknowledge several colleagues who have allowed us to
 interface, adapt or use parts of their codes:
   Stefan Grimme, W. Hujo, H. Kruse, P. Pracht,  : VdW corrections, initial TS optimization,
                  C. Bannwarth, S. Ehlert          DFT functionals, gCP, sTDA/sTD-DF
   Ed Valeev, F. Pavosevic, A. Kumar             : LibInt (2-el integral package), F12 methods
   Garnet Chan, S. Sharma, J. Yang, R. Olivares  : DMRG
   Ulf Ekstrom                                   : XCFun DFT Library
   Mihaly Kallay                                 : mrcc  (arbitrary order and MRCC methods)
   Jiri Pittner, Ondrej Demel                    : Mk-CCSD
   Frank Weinhold                                : gennbo (NPA and NBO analysis)
   Christopher J. Cramer and Donald G. Truhlar   : smd solvation model
   Lars Goerigk                                  : TD-DFT with DH, B97 family of functionals
   V. Asgeirsson, H. Jonsson                     : NEB implementation
   FAccTs GmbH                                   : IRC, NEB, NEB-TS, DLPNO-Multilevel, CI-OPT
                                                   MM, QMMM, 2- and 3-layer-ONIOM, Crystal-QMMM,
                                                   LR-CPCM, SF, NACMEs, symmetry and pop. for TD-DFT,
                                                   nearIR, NL-DFT gradient (VV10), updates on ESD,
                                                   ML-optimized integration grids
   S Lehtola, MJT Oliveira, MAL Marques          : LibXC Library
   Liviu Ungur et al                             : ANISO software


 Your calculation uses the libint2 library for the computation of 2-el integrals
 For citations please refer to: http://libint.valeyev.net

 Your ORCA version has been built with support for libXC version: 5.1.0
 For citations please refer to: https://tddft.org/programs/libxc/

 This ORCA versions uses:
   CBLAS   interface :  Fast vector & matrix operations
   LAPACKE interface :  Fast linear algebra routines
   SCALAPACK package :  Parallel linear algebra routines
   Shared memory     :  Shared parallel matrices
   BLAS/LAPACK       :  OpenBLAS 0.3.15  USE64BITINT DYNAMIC_ARCH NO_AFFINITY SkylakeX SINGLE_THREADED
        Core in use  :  SkylakeX
   Copyright (c) 2011-2014, The OpenBLAS Project


Your calculation utilizes the atom-pairwise dispersion correction
with the zero-damping scheme (D30)
Cite in your paper:
S.Grimme, J.Antony, S.Ehrlich and H.Krieg, J.Chem.Phys., 132, (2010), 154104 
   

XCFun DFT library Copyright 2009-2010 Ulf Ekstrom and contributors.
See http://admol.org/xcfun for more information.
This is free software; see the source code for copying conditions.
There is ABSOLUTELY NO WARRANTY; not even for MERCHANTABILITY or FITNESS FOR A PARTICULAR PURPOSE.
For details see the documentation.
Scientific users of this library should cite U. Ekstrom, L. Visscher, R. Bast, A. J. Thorvaldsen and K. Ruud;
J.Chem.Theor.Comp. 2010, DOI: 10.1021/ct100117s
XCFun Version 0.99 

================================================================================

----- Orbital basis set information -----
Your calculation utilizes the basis: def2-TZVPD
   F. Weigend and R. Ahlrichs, Phys. Chem. Chem. Phys. 7, 3297 (2005).
   D. Rappoport and F. Furche, J. Chem. Phys. 133 134105 (2010).

----- AuxJ basis set information -----
Your calculation utilizes the auxiliary basis: def2/J
   F. Weigend, Phys. Chem. Chem. Phys. 8, 1057 (2006).

================================================================================
                                        WARNINGS
                       Please study these warnings very carefully!
================================================================================


WARNING: Geometry Optimization
  ===> : Switching off AutoStart
         For restart on a previous wavefunction, please use MOREAD

INFO   : the flag for use of the SHARK integral package has been found!

================================================================================
                                       INPUT FILE
================================================================================
NAME = /beegfs/scratch/ispackman/PFAS_EPR_calcs/benchmark/JChemEd_CF3_radical/CF3_radical_117.5_degrees_IN-PROGRESS/CF3_radical_117.5_degrees.inp
|  1> ! UKS TightSCF wB97x-D3 def2-TZVPD xyzfile opt freq
|  2> 
|  3> # CF3 radical 117.5 degrees fixed
|  4> 
|  5> %maxcore 1000
|  6> %pal
|  7> nprocs 18
|  8> end
|  9> 
| 10> %geom Constraints
| 11>         { A * 0 * C }
| 12>     end
| 13> end
| 14> * xyz 0 2
| 15> C 0.00 0.00 0.00
| 16> F 1.2981248645 0.0000000000 -0.2099924670
| 17> F -0.6490624322 1.1242091099 -0.2099924670
| 18> F -0.6490624322 -1.1242091099 -0.2099924670
| 19> **                         ****END OF INPUT****
================================================================================

                       *****************************
                       * Geometry Optimization Run *
                       *****************************

Geometry optimization settings:
Update method            Update   .... BFGS
Choice of coordinates    CoordSys .... Z-matrix Internals
Initial Hessian          InHess   .... Almoef's Model

Convergence Tolerances:
Energy Change            TolE     ....  5.0000e-06 Eh
Max. Gradient            TolMAXG  ....  3.0000e-04 Eh/bohr
RMS Gradient             TolRMSG  ....  1.0000e-04 Eh/bohr
Max. Displacement        TolMAXD  ....  4.0000e-03 bohr
RMS Displacement         TolRMSD  ....  2.0000e-03 bohr
Strict Convergence                ....  False
------------------------------------------------------------------------------
                        ORCA OPTIMIZATION COORDINATE SETUP
------------------------------------------------------------------------------

The optimization will be done in new redundant internal coordinates
Making redundant internal coordinates   ...  (new redundants) done
Evaluating the initial hessian          ...  (Almloef) done
Evaluating the coordinates              ...  done
Calculating the B-matrix                .... done
Calculating the G-matrix                .... done
Diagonalizing the G-matrix              .... done
Imposing constraints:
 Iter   0:  RMS(Cart)=    0.0000000000 RMS(Int)=    0.0000000000
CONVERGED
Will constrain atom 0 coordinate 1 
Will constrain atom 0 coordinate 2 
Will constrain atom 1 coordinate 2 
The first mode is                       ....    1
The number of degrees of freedom        ....    6
Storing new coordinates                 .... done

    -----------------------------------------------------------------
                    Redundant Internal Coordinates


    -----------------------------------------------------------------
         Definition                    Initial Value    Approx d2E/dq
    -----------------------------------------------------------------
      1. B(F   1,C   0)                  1.3150         0.684896   
      2. B(F   2,C   0)                  1.3150         0.684896   
      3. B(F   3,C   0)                  1.3150         0.684896   
      4. A(F   2,C   0,F   3)          117.5000         0.440101 C 
      5. A(F   1,C   0,F   2)          117.5000         0.440101 C 
      6. A(F   1,C   0,F   3)          117.5000         0.440101 C 
      7. I(F   1,F   3,F   2,C   0)     27.1170         0.056606   
    -----------------------------------------------------------------

Number of atoms                         .... 4
Number of degrees of freedom            .... 7

         *************************************************************
         *                GEOMETRY OPTIMIZATION CYCLE   1            *
         *************************************************************
---------------------------------
CARTESIAN COORDINATES (ANGSTROEM)
---------------------------------
  C      0.000000    0.000000    0.000000
  F      1.298125    0.000000   -0.209992
  F     -0.649062    1.124209   -0.209992
  F     -0.649062   -1.124209   -0.209992

----------------------------
CARTESIAN COORDINATES (A.U.)
----------------------------
  NO LB      ZA    FRAG     MASS         X           Y           Z
   0 C     6.0000    0    12.011    0.000000    0.000000    0.000000
   1 F     9.0000    0    18.998    2.453100    0.000000   -0.396828
   2 F     9.0000    0    18.998   -1.226550    2.124447   -0.396828
   3 F     9.0000    0    18.998   -1.226550   -2.124447   -0.396828

--------------------------------
INTERNAL COORDINATES (ANGSTROEM)
--------------------------------
 C      0   0   0     0.000000000000     0.00000000     0.00000000
 F      1   0   0     1.315000000011     0.00000000     0.00000000
 F      1   2   0     1.314999999951   117.50000000     0.00000000
 F      1   2   3     1.314999999951   117.50000000   149.07803258

---------------------------
INTERNAL COORDINATES (A.U.)
---------------------------
 C      0   0   0     0.000000000000     0.00000000     0.00000000
 F      1   0   0     2.484989866128     0.00000000     0.00000000
 F      1   2   0     2.484989866015   117.50000000     0.00000000
 F      1   2   3     2.484989866015   117.50000000   149.07803258

---------------------
BASIS SET INFORMATION
---------------------
There are 2 groups of distinct atoms

 Group   1 Type C   : 12s6p3d1f contracted to 6s3p3d1f pattern {621111/411/111/1}
 Group   2 Type F   : 12s7p3d1f contracted to 6s4p3d1f pattern {621111/4111/111/1}

Atom   0C    basis set group =>   1
Atom   1F    basis set group =>   2
Atom   2F    basis set group =>   2
Atom   3F    basis set group =>   2
---------------------------------
AUXILIARY/J BASIS SET INFORMATION
---------------------------------
There are 2 groups of distinct atoms

 Group   1 Type C   : 12s5p4d2f1g contracted to 6s4p3d1f1g pattern {711111/2111/211/2/1}
 Group   2 Type F   : 12s5p4d2f1g contracted to 6s4p3d1f1g pattern {711111/2111/211/2/1}

Atom   0C    basis set group =>   1
Atom   1F    basis set group =>   2
Atom   2F    basis set group =>   2
Atom   3F    basis set group =>   2


           ************************************************************
           *        Program running with 18 parallel MPI-processes    *
           *              working on a common directory               *
           ************************************************************
------------------------------------------------------------------------------
                           ORCA GTO INTEGRAL CALCULATION
                           -- RI-GTO INTEGRALS CHOSEN --
------------------------------------------------------------------------------
------------------------------------------------------------------------------
                   ___                                                        
                  /   \      - P O W E R E D   B Y -                         
                 /     \                                                     
                 |  |  |   _    _      __       _____    __    __             
                 |  |  |  | |  | |    /  \     |  _  \  |  |  /  |          
                  \  \/   | |  | |   /    \    | | | |  |  | /  /          
                 / \  \   | |__| |  /  /\  \   | |_| |  |  |/  /          
                |  |  |   |  __  | /  /__\  \  |    /   |      \           
                |  |  |   | |  | | |   __   |  |    \   |  |\   \          
                \     /   | |  | | |  |  |  |  | |\  \  |  | \   \       
                 \___/    |_|  |_| |__|  |__|  |_| \__\ |__|  \__/        
                                                                              
                      - O R C A' S   B I G   F R I E N D -                    
                                      &                                       
                       - I N T E G R A L  F E E D E R -                       
                                                                              
 v1 FN, 2020, v2 2021                                                         
------------------------------------------------------------------------------


Reading SHARK input file /beegfs/scratch/ispackman/PFAS_EPR_calcs/benchmark/JChemEd_CF3_radical/CF3_radical_117.5_degrees_IN-PROGRESS/CF3_radical_117.5_degrees.SHARKINP.tmp ... ok
----------------------
SHARK INTEGRAL PACKAGE
----------------------

Number of atoms                             ...      4
Number of basis functions                   ...    157
Number of shells                            ...     55
Maximum angular momentum                    ...      3
Integral batch strategy                     ... SHARK/LIBINT Hybrid
RI-J (if used) integral strategy            ... SPLIT-RIJ (Revised 2003 algorithm where possible)
Printlevel                                  ...      1
Contraction scheme used                     ... SEGMENTED contraction
Coulomb Range Separation                    ... NOT USED
Exchange Range Separation                   ... Long Range
   Mu parameter                             ...  0.250000
   Scaling (regular/separated)              ...  0.195728  0.804272
Finite Nucleus Model                        ... NOT USED
Auxiliary Coulomb fitting basis             ... AVAILABLE
   # of basis functions in Aux-J            ...    196
   # of shells in Aux-J                     ...     60
   Maximum angular momentum in Aux-J        ...      4
Auxiliary J/K fitting basis                 ... NOT available
Auxiliary Correlation fitting basis         ... NOT available
Auxiliary 'external' fitting basis          ... NOT available
Integral threshold                          ...     2.500000e-11
Primitive cut-off                           ...     2.500000e-12
Primitive pair pre-selection threshold      ...     2.500000e-12

Calculating pre-screening integrals         ... done (  0.1 sec) Dimension = 55
Organizing shell pair data                  ... done (  0.0 sec)
Shell pair information
Total number of shell pairs                 ...      1540
Shell pairs after pre-screening             ...      1492
Total number of primitive shell pairs       ...      4274
Primitive shell pairs kept                  ...      3449
          la=0 lb=0:    276 shell pairs
          la=1 lb=0:    354 shell pairs
          la=1 lb=1:    120 shell pairs
          la=2 lb=0:    276 shell pairs
          la=2 lb=1:    180 shell pairs
          la=2 lb=2:     78 shell pairs
          la=3 lb=0:     90 shell pairs
          la=3 lb=1:     60 shell pairs
          la=3 lb=2:     48 shell pairs
          la=3 lb=3:     10 shell pairs

Calculating one electron integrals          ... done (  0.0 sec)
Calculating RI/J V-Matrix + Cholesky decomp.... done (  0.0 sec)
Calculating Nuclear repulsion               ... done (  0.0 sec) ENN=    122.382757514054 Eh

SHARK setup successfully completed in   0.3 seconds

Maximum memory used throughout the entire GTOINT-calculation: 15.2 MB


           ************************************************************
           *        Program running with 18 parallel MPI-processes    *
           *              working on a common directory               *
           ************************************************************
-------------------------------------------------------------------------------
                                 ORCA SCF
-------------------------------------------------------------------------------

------------
SCF SETTINGS
------------
Hamiltonian:
 Density Functional     Method          .... DFT(GTOs)
 Exchange Functional    Exchange        .... WB97X-D3
 Correlation Functional Correlation     .... WB97X-D3
 Gradients option       PostSCFGGA      .... off
 Hybrid DFT is turned on
   Fraction HF Exchange ScalHFX         ....  0.195728
   Scaling of DF-GGA-X  ScalDFX         ....  0.000000
   Scaling of DF-GGA-C  ScalDFC         ....  1.000000
   Scaling of DF-LDA-C  ScalLDAC        ....  1.000000
   Perturbative correction              ....  0.000000
   Density functional embedding theory  .... OFF
 Long-range corrected/Screened/Range-Separated Hybrid DFT is turned on
   Amount of maximum screened exact exchange              ....  0.804272
   Range separation parameter mu (erf(mu*r12)/r12)        ....  0.250000
 RI-approximation to the Coulomb term is turned on
   Number of AuxJ basis functions       .... 196
   RIJ-COSX (HFX calculated with COS-X)).... on


General Settings:
 Integral files         IntName         .... /beegfs/scratch/ispackman/PFAS_EPR_calcs/benchmark/JChemEd_CF3_radical/CF3_radical_117.5_degrees_IN-PROGRESS/CF3_radical_117.5_degrees
 Hartree-Fock type      HFTyp           .... UHF
 Total Charge           Charge          ....    0
 Multiplicity           Mult            ....    2
 Number of Electrons    NEL             ....   33
 Basis Dimension        Dim             ....  157
 Nuclear Repulsion      ENuc            ....    122.3827575141 Eh

Convergence Acceleration:
 DIIS                   CNVDIIS         .... on
   Start iteration      DIISMaxIt       ....    12
   Startup error        DIISStart       ....  0.200000
   # of expansion vecs  DIISMaxEq       ....     5
   Bias factor          DIISBfac        ....   1.050
   Max. coefficient     DIISMaxC        ....  10.000
 Trust-Rad. Augm. Hess. CNVTRAH         .... auto
   Auto Start mean grad. ratio tolernc. ....  1.125000
   Auto Start start iteration           ....    20
   Auto Start num. interpolation iter.  ....    10
   Max. Number of Micro iterations      ....    16
   Max. Number of Macro iterations      .... Maxiter - #DIIS iter
   Number of Davidson start vectors     ....     2
   Converg. threshold I  (grad. norm)   ....   1.000e-05
   Converg. threshold II (energy diff.) ....   1.000e-08
   Grad. Scal. Fac. for Micro threshold ....   0.100
   Minimum threshold for Micro iter.    ....   0.010
   NR start threshold (gradient norm)   ....   0.001
   Initial trust radius                 ....   0.400
   Minimum AH scaling param. (alpha)    ....   1.000
   Maximum AH scaling param. (alpha)    .... 1000.000
   Orbital update algorithm             .... Taylor
   White noise on init. David. guess    .... on
   Maximum white noise                  ....   0.010
   Quad. conv. algorithm                .... NR
 SOSCF                  CNVSOSCF        .... off
 Level Shifting         CNVShift        .... on
   Level shift para.    LevelShift      ....    0.2500
   Turn off err/grad.   ShiftErr        ....    0.0010
 Zerner damping         CNVZerner       .... off
 Static damping         CNVDamp         .... on
   Fraction old density DampFac         ....    0.7000
   Max. Damping (<1)    DampMax         ....    0.9800
   Min. Damping (>=0)   DampMin         ....    0.0000
   Turn off err/grad.   DampErr         ....    0.1000
 Fernandez-Rico         CNVRico         .... off

SCF Procedure:
 Maximum # iterations   MaxIter         ....   125
 SCF integral mode      SCFMode         .... Direct
   Integral package                     .... SHARK and LIBINT hybrid scheme
 Reset frequency        DirectResetFreq ....    20
 Integral Threshold     Thresh          ....  2.500e-11 Eh
 Primitive CutOff       TCut            ....  2.500e-12 Eh

Convergence Tolerance:
 Convergence Check Mode ConvCheckMode   .... Total+1el-Energy
 Convergence forced     ConvForced      .... 0
 Energy Change          TolE            ....  1.000e-08 Eh
 1-El. energy change                    ....  1.000e-05 Eh
 DIIS Error             TolErr          ....  5.000e-07


Diagonalization of the overlap matrix:
Smallest eigenvalue                        ... 2.795e-04
Time for diagonalization                   ...    0.008 sec
Threshold for overlap eigenvalues          ... 1.000e-08
Number of eigenvalues below threshold      ... 0
Time for construction of square roots      ...    0.014 sec
Total time needed                          ...    0.023 sec

Time for model grid setup =    0.059 sec

------------------------------
INITIAL GUESS: MODEL POTENTIAL
------------------------------
Loading Hartree-Fock densities                     ... done
Calculating cut-offs                               ... done
Initializing the effective Hamiltonian             ... done
Setting up the integral package (SHARK)            ... done
Starting the Coulomb interaction                   ... done (   0.1 sec)
Reading the grid                                   ... done
Mapping shells                                     ... done
Starting the XC term evaluation                    ... done (   0.0 sec)
  promolecular density results
     # of electrons  =     32.999632583
     EX              =    -35.093818509
     EC              =     -1.143565290
     EX+EC           =    -36.237383800
Transforming the Hamiltonian                       ... done (   0.0 sec)
Diagonalizing the Hamiltonian                      ... done (   0.0 sec)
Back transforming the eigenvectors                 ... done (   0.0 sec)
Now organizing SCF variables                       ... done
                      ------------------
                      INITIAL GUESS DONE (   0.2 sec)
                      ------------------
-------------------
DFT GRID GENERATION
-------------------

General Integration Accuracy     IntAcc      ... 4.388
Radial Grid Type                 RadialGrid  ... OptM3 with GC (2021)
Angular Grid (max. ang.)         AngularGrid ... 4 (Lebedev-302)
Angular grid pruning method      GridPruning ... 4 (adaptive)
Weight generation scheme         WeightScheme... Becke
Basis function cutoff            BFCut       ... 1.0000e-11
Integration weight cutoff        WCut        ... 1.0000e-14
Angular grids for H and He will be reduced by one unit
Partially contracted basis set               ... off
Rotationally invariant grid construction     ... off

Total number of grid points                  ...    25764
Total number of batches                      ...      405
Average number of points per batch           ...       63
Average number of grid points per atom       ...     6441
Time for grid setup =    0.149 sec

--------------------
COSX GRID GENERATION
--------------------

GRIDX 1
-------
General Integration Accuracy     IntAcc      ... 3.816
Radial Grid Type                 RadialGrid  ... OptM3 with GC (2021)
Angular Grid (max. ang.)         AngularGrid ... 1 (Lebedev-50)
Angular grid pruning method      GridPruning ... 4 (adaptive)
Weight generation scheme         WeightScheme... Becke
Basis function cutoff            BFCut       ... 1.0000e-11
Integration weight cutoff        WCut        ... 1.0000e-14
Angular grids for H and He will be reduced by one unit
Partially contracted basis set               ... on
Rotationally invariant grid construction     ... off

Total number of grid points                  ...     3272
Total number of batches                      ...       52
Average number of points per batch           ...       62
Average number of grid points per atom       ...      818
UseSFitting                                  ... on

GRIDX 2
-------
General Integration Accuracy     IntAcc      ... 4.020
Radial Grid Type                 RadialGrid  ... OptM3 with GC (2021)
Angular Grid (max. ang.)         AngularGrid ... 2 (Lebedev-110)
Angular grid pruning method      GridPruning ... 4 (adaptive)
Weight generation scheme         WeightScheme... Becke
Basis function cutoff            BFCut       ... 1.0000e-11
Integration weight cutoff        WCut        ... 1.0000e-14
Angular grids for H and He will be reduced by one unit
Partially contracted basis set               ... on
Rotationally invariant grid construction     ... off

Total number of grid points                  ...     9151
Total number of batches                      ...      144
Average number of points per batch           ...       63
Average number of grid points per atom       ...     2288
UseSFitting                                  ... on

GRIDX 3
-------
General Integration Accuracy     IntAcc      ... 4.338
Radial Grid Type                 RadialGrid  ... OptM3 with GC (2021)
Angular Grid (max. ang.)         AngularGrid ... 3 (Lebedev-194)
Angular grid pruning method      GridPruning ... 4 (adaptive)
Weight generation scheme         WeightScheme... Becke
Basis function cutoff            BFCut       ... 1.0000e-11
Integration weight cutoff        WCut        ... 1.0000e-14
Angular grids for H and He will be reduced by one unit
Partially contracted basis set               ... on
Rotationally invariant grid construction     ... off

Total number of grid points                  ...    19667
Total number of batches                      ...      308
Average number of points per batch           ...       63
Average number of grid points per atom       ...     4917
UseSFitting                                  ... on

Time for X-Grid setup             =    0.329 sec

--------------
SCF ITERATIONS
--------------
ITER       Energy         Delta-E        Max-DP      RMS-DP      [F,P]     Damp
               ***  Starting incremental Fock matrix formation  ***
  0   -337.5669138410   0.000000000000 0.01499185  0.00034514  0.0622556 0.7000
  1   -337.5872538011  -0.020339960020 0.01092854  0.00023933  0.0297978 0.7000
                               ***Turning on DIIS***
  2   -337.5962487145  -0.008994913449 0.02175915  0.00049108  0.0167869 0.0000
  3   -337.6132351401  -0.016986425607 0.00620890  0.00014830  0.0152243 0.0000
  4   -337.6157082284  -0.002473088257 0.00784163  0.00012127  0.0051080 0.0000
  5   -337.6160751089  -0.000366880524 0.00691554  0.00009635  0.0035504 0.0000
  6   -337.6162282698  -0.000153160945 0.00557576  0.00007619  0.0020379 0.0000
  7   -337.6162898738  -0.000061603971 0.00382290  0.00005034  0.0011734 0.0000
  8   -337.6163099340  -0.000020060199 0.00415460  0.00005428  0.0006186 0.0000
               *** Restarting incremental Fock matrix formation ***
                                   *** Resetting DIIS ***
  9   -337.6163167707  -0.000006836643 0.00077541  0.00000986  0.0001329 0.0000
 10   -337.6163172341  -0.000000463432 0.00015092  0.00000216  0.0000886 0.0000
 11   -337.6163173664  -0.000000132290 0.00019249  0.00000271  0.0000446 0.0000
 12   -337.6163174563  -0.000000089928 0.00006976  0.00000116  0.0000126 0.0000
 13   -337.6163174632  -0.000000006890 0.00003579  0.00000041  0.0000042 0.0000
 14   -337.6163174619   0.000000001257 0.00000503  0.00000009  0.0000017 0.0000
                 **** Energy Check signals convergence ****

               *****************************************************
               *                     SUCCESS                       *
               *           SCF CONVERGED AFTER  15 CYCLES          *
               *****************************************************

Old exchange energy                            =    -10.534429580 Eh
New exchange energy                            =    -10.534437098 Eh
Exchange energy change after final integration =     -0.000007518 Eh
Total energy after final integration           =   -337.616324980 Eh
Final COS-X integration done in                =     0.387 sec

----------------
TOTAL SCF ENERGY
----------------

Total Energy       :         -337.61632498 Eh           -9187.00726 eV

Components:
Nuclear Repulsion  :          122.38275751 Eh            3330.20414 eV
Electronic Energy  :         -459.99908249 Eh          -12517.21140 eV
One Electron Energy:         -711.53981408 Eh          -19361.98269 eV
Two Electron Energy:          251.54073159 Eh            6844.77129 eV
Max COSX asymmetry :            0.00000053 Eh               0.00001 eV

Virial components:
Potential Energy   :         -674.14830749 Eh          -18344.50806 eV
Kinetic Energy     :          336.53198251 Eh            9157.50080 eV
Virial Ratio       :            2.00322211


DFT components:
N(Alpha)           :       16.999830774833 electrons
N(Beta)            :       15.999921627284 electrons
N(Total)           :       32.999752402116 electrons
E(XC)              :      -26.185072418438 Eh       
DFET-embed. en.    :        0.000000000000 Eh       

---------------
SCF CONVERGENCE
---------------

  Last Energy change         ...    1.2801e-10  Tolerance :   1.0000e-08
  Last MAX-Density change    ...    0.0000e+00  Tolerance :   1.0000e-07
  Last RMS-Density change    ...    0.0000e+00  Tolerance :   5.0000e-09
  Last DIIS Error            ...    1.1942e-06  Tolerance :   5.0000e-07

             **** THE GBW FILE WAS UPDATED (/beegfs/scratch/ispackman/PFAS_EPR_calcs/benchmark/JChemEd_CF3_radical/CF3_radical_117.5_degrees_IN-PROGRESS/CF3_radical_117.5_degrees.gbw) ****
             **** DENSITY /beegfs/scratch/ispackman/PFAS_EPR_calcs/benchmark/JChemEd_CF3_radical/CF3_radical_117.5_degrees_IN-PROGRESS/CF3_radical_117.5_degrees.scfp WAS UPDATED ****
             **** ENERGY FILE WAS UPDATED (/beegfs/scratch/ispackman/PFAS_EPR_calcs/benchmark/JChemEd_CF3_radical/CF3_radical_117.5_degrees_IN-PROGRESS/CF3_radical_117.5_degrees.en.tmp) ****
----------------------
UHF SPIN CONTAMINATION
----------------------

Warning: in a DFT calculation there is little theoretical justification to 
         calculate <S**2> as in Hartree-Fock theory. We will do it anyways
         but you should keep in mind that the values have only limited relevance

Expectation value of <S**2>     :     0.752299
Ideal value S*(S+1) for S=0.5   :     0.750000
Deviation                       :     0.002299

             **** THE GBW FILE WAS UPDATED (/beegfs/scratch/ispackman/PFAS_EPR_calcs/benchmark/JChemEd_CF3_radical/CF3_radical_117.5_degrees_IN-PROGRESS/CF3_radical_117.5_degrees.gbw) ****
             **** DENSITY /beegfs/scratch/ispackman/PFAS_EPR_calcs/benchmark/JChemEd_CF3_radical/CF3_radical_117.5_degrees_IN-PROGRESS/CF3_radical_117.5_degrees.scfp WAS UPDATED ****
----------------
ORBITAL ENERGIES
----------------
                 SPIN UP ORBITALS
  NO   OCC          E(Eh)            E(eV) 
   0   1.0000     -24.858202      -676.4261 
   1   1.0000     -24.858194      -676.4259 
   2   1.0000     -24.858183      -676.4256 
   3   1.0000     -10.524511      -286.3865 
   4   1.0000      -1.461343       -39.7652 
   5   1.0000      -1.388369       -37.7794 
   6   1.0000      -1.388368       -37.7794 
   7   1.0000      -0.836121       -22.7520 
   8   1.0000      -0.734537       -19.9878 
   9   1.0000      -0.734532       -19.9876 
  10   1.0000      -0.697503       -18.9800 
  11   1.0000      -0.604028       -16.4364 
  12   1.0000      -0.604025       -16.4363 
  13   1.0000      -0.586243       -15.9525 
  14   1.0000      -0.586233       -15.9522 
  15   1.0000      -0.555215       -15.1082 
  16   1.0000      -0.317118        -8.6292 
  17   0.0000       0.060766         1.6535 
  18   0.0000       0.100608         2.7377 
  19   0.0000       0.100609         2.7377 
  20   0.0000       0.118442         3.2230 
  21   0.0000       0.154363         4.2004 
  22   0.0000       0.154363         4.2004 
  23   0.0000       0.161576         4.3967 
  24   0.0000       0.173063         4.7093 
  25   0.0000       0.173064         4.7093 
  26   0.0000       0.192455         5.2370 
  27   0.0000       0.237338         6.4583 
  28   0.0000       0.278814         7.5869 
  29   0.0000       0.278817         7.5870 
  30   0.0000       0.321866         8.7584 
  31   0.0000       0.353836         9.6284 
  32   0.0000       0.375186        10.2093 
  33   0.0000       0.375189        10.2094 
  34   0.0000       0.384199        10.4546 
  35   0.0000       0.384209        10.4549 
  36   0.0000       0.403021        10.9668 
  37   0.0000       0.438101        11.9213 
  38   0.0000       0.438102        11.9214 
  39   0.0000       0.478493        13.0204 
  40   0.0000       0.492351        13.3976 
  41   0.0000       0.492354        13.3976 
  42   0.0000       0.632768        17.2185 
  43   0.0000       0.648673        17.6513 
  44   0.0000       0.648675        17.6514 
  45   0.0000       0.667191        18.1552 
  46   0.0000       0.667193        18.1552 
  47   0.0000       0.717911        19.5353 
  48   0.0000       0.731745        19.9118 
  49   0.0000       0.740312        20.1449 
  50   0.0000       0.748150        20.3582 
  51   0.0000       0.748154        20.3583 
  52   0.0000       0.784089        21.3362 
  53   0.0000       0.784090        21.3362 
  54   0.0000       0.858952        23.3733 
  55   0.0000       0.858953        23.3733 
  56   0.0000       0.867739        23.6124 
  57   0.0000       0.970268        26.4023 
  58   0.0000       0.970270        26.4024 
  59   0.0000       0.972349        26.4589 
  60   0.0000       1.046589        28.4791 
  61   0.0000       1.046595        28.4793 
  62   0.0000       1.058703        28.8088 
  63   0.0000       1.145481        31.1701 
  64   0.0000       1.145482        31.1702 
  65   0.0000       1.180038        32.1105 
  66   0.0000       1.266642        34.4671 
  67   0.0000       1.273369        34.6501 
  68   0.0000       1.273380        34.6504 
  69   0.0000       1.277452        34.7612 
  70   0.0000       1.303892        35.4807 
  71   0.0000       1.303905        35.4811 
  72   0.0000       1.499158        40.7942 
  73   0.0000       1.499172        40.7946 
  74   0.0000       1.710850        46.5546 
  75   0.0000       2.091466        56.9117 
  76   0.0000       2.150632        58.5217 
  77   0.0000       2.150634        58.5217 
  78   0.0000       2.175260        59.1918 
  79   0.0000       2.201176        59.8970 
  80   0.0000       2.201199        59.8977 
  81   0.0000       2.294811        62.4450 
  82   0.0000       2.313328        62.9489 
  83   0.0000       2.392806        65.1116 
  84   0.0000       2.392821        65.1120 
  85   0.0000       2.496768        67.9405 
  86   0.0000       2.543037        69.1995 
  87   0.0000       2.543050        69.1999 
  88   0.0000       2.761336        75.1398 
  89   0.0000       2.761352        75.1402 
  90   0.0000       2.801537        76.2337 
  91   0.0000       2.931124        79.7599 
  92   0.0000       2.931130        79.7601 
  93   0.0000       3.118141        84.8489 
  94   0.0000       3.189281        86.7847 
  95   0.0000       3.189333        86.7862 
  96   0.0000       3.250980        88.4637 
  97   0.0000       3.337999        90.8316 
  98   0.0000       3.338025        90.8323 
  99   0.0000       3.371953        91.7555 
 100   0.0000       3.378687        91.9387 
 101   0.0000       3.378718        91.9396 
 102   0.0000       3.504412        95.3599 
 103   0.0000       3.504453        95.3610 
 104   0.0000       3.740399       101.7814 
 105   0.0000       3.781101       102.8890 
 106   0.0000       3.781146       102.8902 
 107   0.0000       3.885499       105.7298 
 108   0.0000       3.934123       107.0529 
 109   0.0000       3.934262       107.0567 
 110   0.0000       4.118749       112.0769 
 111   0.0000       4.118788       112.0779 
 112   0.0000       4.268708       116.1574 
 113   0.0000       4.342158       118.1561 
 114   0.0000       5.144021       139.9759 
 115   0.0000       5.491007       149.4179 
 116   0.0000       5.491092       149.4202 
 117   0.0000       6.877627       187.1498 
 118   0.0000       6.904364       187.8773 
 119   0.0000       6.904377       187.8777 
 120   0.0000       6.907173       187.9537 
 121   0.0000       6.911841       188.0808 
 122   0.0000       6.911841       188.0808 
 123   0.0000       6.914516       188.1536 
 124   0.0000       6.942344       188.9108 
 125   0.0000       6.942414       188.9127 
 126   0.0000       7.042873       191.6463 
 127   0.0000       7.081234       192.6902 
 128   0.0000       7.081298       192.6919 
 129   0.0000       7.160007       194.8337 
 130   0.0000       7.160026       194.8342 
 131   0.0000       7.290086       198.3733 
 132   0.0000       7.429981       202.1800 
 133   0.0000       7.429990       202.1803 
 134   0.0000       7.588508       206.4938 
 135   0.0000       7.588550       206.4950 
 136   0.0000       7.648505       208.1264 
 137   0.0000       7.972476       216.9421 
 138   0.0000       8.476087       230.6460 
 139   0.0000       8.511331       231.6051 
 140   0.0000       8.511399       231.6069 
 141   0.0000       8.577621       233.4089 
 142   0.0000       8.577653       233.4098 
 143   0.0000       8.583841       233.5782 
 144   0.0000       8.823905       240.1107 
 145   0.0000       8.854124       240.9330 
 146   0.0000       8.854125       240.9330 
 147   0.0000       9.028872       245.6881 
 148   0.0000       9.028925       245.6895 
 149   0.0000       9.052748       246.3378 
 150   0.0000       9.263701       252.0781 
 151   0.0000       9.347787       254.3662 
 152   0.0000       9.347799       254.3666 
 153   0.0000      22.986160       625.4852 
 154   0.0000      57.154094      1555.2420 
 155   0.0000      57.309333      1559.4662 
 156   0.0000      57.309344      1559.4665 

                 SPIN DOWN ORBITALS
  NO   OCC          E(Eh)            E(eV) 
   0   1.0000     -24.855287      -676.3467 
   1   1.0000     -24.855279      -676.3465 
   2   1.0000     -24.855262      -676.3461 
   3   1.0000     -10.511507      -286.0326 
   4   1.0000      -1.450566       -39.4719 
   5   1.0000      -1.380504       -37.5654 
   6   1.0000      -1.380495       -37.5652 
   7   1.0000      -0.816312       -22.2130 
   8   1.0000      -0.725753       -19.7487 
   9   1.0000      -0.725737       -19.7483 
  10   1.0000      -0.660365       -17.9694 
  11   1.0000      -0.595558       -16.2060 
  12   1.0000      -0.595555       -16.2059 
  13   1.0000      -0.572569       -15.5804 
  14   1.0000      -0.572556       -15.5800 
  15   1.0000      -0.552154       -15.0249 
  16   0.0000       0.031471         0.8564 
  17   0.0000       0.076897         2.0925 
  18   0.0000       0.104658         2.8479 
  19   0.0000       0.104658         2.8479 
  20   0.0000       0.133308         3.6275 
  21   0.0000       0.158039         4.3005 
  22   0.0000       0.158040         4.3005 
  23   0.0000       0.172192         4.6856 
  24   0.0000       0.180377         4.9083 
  25   0.0000       0.180377         4.9083 
  26   0.0000       0.213514         5.8100 
  27   0.0000       0.240337         6.5399 
  28   0.0000       0.290713         7.9107 
  29   0.0000       0.290719         7.9109 
  30   0.0000       0.329281         8.9602 
  31   0.0000       0.364301         9.9131 
  32   0.0000       0.378621        10.3028 
  33   0.0000       0.378623        10.3028 
  34   0.0000       0.401918        10.9368 
  35   0.0000       0.401944        10.9375 
  36   0.0000       0.419319        11.4103 
  37   0.0000       0.439274        11.9533 
  38   0.0000       0.439274        11.9533 
  39   0.0000       0.484412        13.1815 
  40   0.0000       0.492132        13.3916 
  41   0.0000       0.492134        13.3916 
  42   0.0000       0.641624        17.4595 
  43   0.0000       0.651075        17.7167 
  44   0.0000       0.651076        17.7167 
  45   0.0000       0.668633        18.1944 
  46   0.0000       0.668638        18.1946 
  47   0.0000       0.718703        19.5569 
  48   0.0000       0.739727        20.1290 
  49   0.0000       0.741444        20.1757 
  50   0.0000       0.754062        20.5191 
  51   0.0000       0.754066        20.5192 
  52   0.0000       0.787059        21.4170 
  53   0.0000       0.787059        21.4170 
  54   0.0000       0.861767        23.4499 
  55   0.0000       0.861771        23.4500 
  56   0.0000       0.870006        23.6741 
  57   0.0000       0.981932        26.7197 
  58   0.0000       0.981934        26.7198 
  59   0.0000       0.985909        26.8280 
  60   0.0000       1.048846        28.5406 
  61   0.0000       1.048847        28.5406 
  62   0.0000       1.062627        28.9155 
  63   0.0000       1.147697        31.2304 
  64   0.0000       1.147698        31.2304 
  65   0.0000       1.186427        32.2843 
  66   0.0000       1.266595        34.4658 
  67   0.0000       1.277919        34.7740 
  68   0.0000       1.277935        34.7744 
  69   0.0000       1.289912        35.1003 
  70   0.0000       1.316214        35.8160 
  71   0.0000       1.316219        35.8161 
  72   0.0000       1.508109        41.0377 
  73   0.0000       1.508127        41.0382 
  74   0.0000       1.765105        48.0309 
  75   0.0000       2.101052        57.1725 
  76   0.0000       2.159492        58.7628 
  77   0.0000       2.159511        58.7633 
  78   0.0000       2.176660        59.2299 
  79   0.0000       2.210237        60.1436 
  80   0.0000       2.210241        60.1437 
  81   0.0000       2.297472        62.5174 
  82   0.0000       2.335603        63.5550 
  83   0.0000       2.402438        65.3737 
  84   0.0000       2.402450        65.3740 
  85   0.0000       2.503051        68.1115 
  86   0.0000       2.553785        69.4920 
  87   0.0000       2.553814        69.4928 
  88   0.0000       2.773367        75.4671 
  89   0.0000       2.773440        75.4691 
  90   0.0000       2.819901        76.7334 
  91   0.0000       2.935788        79.8869 
  92   0.0000       2.935799        79.8872 
  93   0.0000       3.164812        86.1189 
  94   0.0000       3.209247        87.3281 
  95   0.0000       3.209292        87.3293 
  96   0.0000       3.270789        89.0027 
  97   0.0000       3.356466        91.3341 
  98   0.0000       3.356597        91.3376 
  99   0.0000       3.375878        91.8623 
 100   0.0000       3.416959        92.9802 
 101   0.0000       3.417001        92.9813 
 102   0.0000       3.535796        96.2139 
 103   0.0000       3.535821        96.2146 
 104   0.0000       3.767711       102.5246 
 105   0.0000       3.788508       103.0905 
 106   0.0000       3.788561       103.0920 
 107   0.0000       3.893831       105.9565 
 108   0.0000       3.952130       107.5429 
 109   0.0000       3.952192       107.5446 
 110   0.0000       4.123434       112.2043 
 111   0.0000       4.123474       112.2054 
 112   0.0000       4.277799       116.4048 
 113   0.0000       4.351440       118.4087 
 114   0.0000       5.160097       140.4134 
 115   0.0000       5.501904       149.7144 
 116   0.0000       5.501998       149.7170 
 117   0.0000       6.879891       187.2114 
 118   0.0000       6.909930       188.0287 
 119   0.0000       6.909941       188.0291 
 120   0.0000       6.913250       188.1191 
 121   0.0000       6.916794       188.2155 
 122   0.0000       6.916799       188.2157 
 123   0.0000       6.919586       188.2915 
 124   0.0000       6.945747       189.0034 
 125   0.0000       6.945818       189.0053 
 126   0.0000       7.047567       191.7740 
 127   0.0000       7.084513       192.7794 
 128   0.0000       7.084574       192.7811 
 129   0.0000       7.165170       194.9742 
 130   0.0000       7.165190       194.9747 
 131   0.0000       7.297396       198.5722 
 132   0.0000       7.438941       202.4239 
 133   0.0000       7.438956       202.4243 
 134   0.0000       7.593814       206.6382 
 135   0.0000       7.593825       206.6385 
 136   0.0000       7.656650       208.3480 
 137   0.0000       7.978904       217.1170 
 138   0.0000       8.483546       230.8490 
 139   0.0000       8.521430       231.8799 
 140   0.0000       8.521495       231.8817 
 141   0.0000       8.587271       233.6715 
 142   0.0000       8.587302       233.6724 
 143   0.0000       8.590925       233.7709 
 144   0.0000       8.835232       240.4189 
 145   0.0000       8.863860       241.1979 
 146   0.0000       8.863864       241.1980 
 147   0.0000       9.032084       245.7755 
 148   0.0000       9.032138       245.7770 
 149   0.0000       9.058514       246.4947 
 150   0.0000       9.270093       252.2521 
 151   0.0000       9.353117       254.5113 
 152   0.0000       9.353133       254.5117 
 153   0.0000      23.009230       626.1130 
 154   0.0000      57.156992      1555.3208 
 155   0.0000      57.312210      1559.5445 
 156   0.0000      57.312221      1559.5448 

                    ********************************
                    * MULLIKEN POPULATION ANALYSIS *
                    ********************************

--------------------------------------------
MULLIKEN ATOMIC CHARGES AND SPIN POPULATIONS
--------------------------------------------
   0 C :    0.503626    0.861808
   1 F :   -0.167822    0.046055
   2 F :   -0.167902    0.046069
   3 F :   -0.167901    0.046069
Sum of atomic charges         :   -0.0000000
Sum of atomic spin populations:    1.0000000

-----------------------------------------------------
MULLIKEN REDUCED ORBITAL CHARGES AND SPIN POPULATIONS
-----------------------------------------------------
CHARGE
  0 C s       :     3.097885  s :     3.097885
      pz      :     1.011241  p :     2.065630
      px      :     0.527266
      py      :     0.527122
      dz2     :     0.033113  d :     0.294258
      dxz     :     0.049105
      dyz     :     0.049089
      dx2y2   :     0.081466
      dxy     :     0.081485
      f0      :     0.004159  f :     0.038602
      f+1     :     0.002890
      f-1     :     0.002890
      f+2     :     0.004661
      f-2     :     0.004661
      f+3     :     0.005561
      f-3     :     0.013781
  1 F s       :     3.954044  s :     3.954044
      pz      :     1.874088  p :     5.199319
      px      :     1.414001
      py      :     1.911230
      dz2     :     0.000866  d :     0.013661
      dxz     :     0.008498
      dyz     :    -0.000160
      dx2y2   :     0.006220
      dxy     :    -0.001762
      f0      :     0.000081  f :     0.000798
      f+1     :     0.000161
      f-1     :     0.000010
      f+2     :     0.000144
      f-2     :     0.000008
      f+3     :     0.000247
      f-3     :     0.000147
  2 F s       :     3.954072  s :     3.954072
      pz      :     1.874056  p :     5.199362
      px      :     1.786987
      py      :     1.538318
      dz2     :     0.000870  d :     0.013670
      dxz     :     0.002004
      dyz     :     0.006331
      dx2y2   :     0.000237
      dxy     :     0.004230
      f0      :     0.000081  f :     0.000798
      f+1     :     0.000047
      f-1     :     0.000123
      f+2     :     0.000042
      f-2     :     0.000110
      f+3     :     0.000247
      f-3     :     0.000147
  3 F s       :     3.954071  s :     3.954071
      pz      :     1.874056  p :     5.199362
      px      :     1.786987
      py      :     1.538318
      dz2     :     0.000870  d :     0.013670
      dxz     :     0.002004
      dyz     :     0.006331
      dx2y2   :     0.000236
      dxy     :     0.004230
      f0      :     0.000081  f :     0.000798
      f+1     :     0.000047
      f-1     :     0.000123
      f+2     :     0.000042
      f-2     :     0.000110
      f+3     :     0.000247
      f-3     :     0.000147

SPIN
  0 C s       :     0.186316  s :     0.186316
      pz      :     0.640338  p :     0.664380
      px      :     0.012027
      py      :     0.012015
      dz2     :     0.015033  d :     0.012088
      dxz     :    -0.001832
      dyz     :    -0.001829
      dx2y2   :     0.000363
      dxy     :     0.000353
      f0      :    -0.000519  f :    -0.000976
      f+1     :    -0.000569
      f-1     :    -0.000570
      f+2     :    -0.000014
      f-2     :    -0.000015
      f+3     :     0.000609
      f-3     :     0.000102
  1 F s       :     0.001868  s :     0.001868
      pz      :     0.052519  p :     0.041174
      px      :    -0.010031
      py      :    -0.001313
      dz2     :     0.000171  d :     0.002958
      dxz     :     0.002382
      dyz     :     0.000034
      dx2y2   :     0.000373
      dxy     :    -0.000003
      f0      :     0.000008  f :     0.000055
      f+1     :     0.000015
      f-1     :    -0.000001
      f+2     :     0.000027
      f-2     :     0.000001
      f+3     :     0.000005
      f-3     :     0.000001
  2 F s       :     0.001862  s :     0.001862
      pz      :     0.052519  p :     0.041198
      px      :    -0.003499
      py      :    -0.007822
      dz2     :     0.000170  d :     0.002953
      dxz     :     0.000621
      dyz     :     0.001796
      dx2y2   :     0.000089
      dxy     :     0.000277
      f0      :     0.000008  f :     0.000056
      f+1     :     0.000003
      f-1     :     0.000011
      f+2     :     0.000007
      f-2     :     0.000021
      f+3     :     0.000005
      f-3     :     0.000001
  3 F s       :     0.001862  s :     0.001862
      pz      :     0.052519  p :     0.041198
      px      :    -0.003499
      py      :    -0.007822
      dz2     :     0.000170  d :     0.002953
      dxz     :     0.000621
      dyz     :     0.001796
      dx2y2   :     0.000089
      dxy     :     0.000277
      f0      :     0.000008  f :     0.000056
      f+1     :     0.000003
      f-1     :     0.000011
      f+2     :     0.000007
      f-2     :     0.000021
      f+3     :     0.000005
      f-3     :     0.000001


                     *******************************
                     * LOEWDIN POPULATION ANALYSIS *
                     *******************************

-------------------------------------------
LOEWDIN ATOMIC CHARGES AND SPIN POPULATIONS
-------------------------------------------
   0 C :   -0.438299    0.613652
   1 F :    0.146113    0.128758
   2 F :    0.146093    0.128795
   3 F :    0.146093    0.128795

----------------------------------------------------
LOEWDIN REDUCED ORBITAL CHARGES AND SPIN POPULATIONS
----------------------------------------------------
CHARGE
  0 C s       :     2.639297  s :     2.639297
      pz      :     0.859547  p :     2.276430
      px      :     0.708457
      py      :     0.708426
      dz2     :     0.158574  d :     1.275509
      dxz     :     0.179815
      dyz     :     0.179813
      dx2y2   :     0.378650
      dxy     :     0.378656
      f0      :     0.019987  f :     0.247063
      f+1     :     0.019553
      f-1     :     0.019553
      f+2     :     0.028803
      f-2     :     0.028803
      f+3     :     0.053453
      f-3     :     0.076911
  1 F s       :     3.565656  s :     3.565656
      pz      :     1.772880  p :     5.093541
      px      :     1.537924
      py      :     1.782737
      dz2     :     0.023982  d :     0.192717
      dxz     :     0.067392
      dyz     :     0.002044
      dx2y2   :     0.046344
      dxy     :     0.052956
      f0      :     0.000233  f :     0.001973
      f+1     :     0.000361
      f-1     :     0.000022
      f+2     :     0.000466
      f-2     :     0.000023
      f+3     :     0.000512
      f-3     :     0.000356
  2 F s       :     3.565657  s :     3.565657
      pz      :     1.772875  p :     5.093559
      px      :     1.721552
      py      :     1.599132
      dz2     :     0.023982  d :     0.192719
      dxz     :     0.018381
      dyz     :     0.051055
      dx2y2   :     0.051304
      dxy     :     0.047997
      f0      :     0.000233  f :     0.001973
      f+1     :     0.000107
      f-1     :     0.000276
      f+2     :     0.000134
      f-2     :     0.000355
      f+3     :     0.000512
      f-3     :     0.000356
  3 F s       :     3.565657  s :     3.565657
      pz      :     1.772875  p :     5.093559
      px      :     1.721552
      py      :     1.599132
      dz2     :     0.023982  d :     0.192719
      dxz     :     0.018381
      dyz     :     0.051055
      dx2y2   :     0.051304
      dxy     :     0.047997
      f0      :     0.000233  f :     0.001973
      f+1     :     0.000107
      f-1     :     0.000276
      f+2     :     0.000134
      f-2     :     0.000355
      f+3     :     0.000512
      f-3     :     0.000356

SPIN
  0 C s       :     0.086090  s :     0.086090
      pz      :     0.475706  p :     0.490521
      px      :     0.007408
      py      :     0.007407
      dz2     :     0.038084  d :     0.028930
      dxz     :    -0.003912
      dyz     :    -0.003909
      dx2y2   :    -0.000665
      dxy     :    -0.000668
      f0      :     0.002193  f :     0.008111
      f+1     :    -0.000433
      f-1     :    -0.000434
      f+2     :    -0.000161
      f-2     :    -0.000161
      f+3     :     0.007114
      f-3     :    -0.000007
  1 F s       :     0.012362  s :     0.012362
      pz      :     0.070514  p :     0.069714
      px      :    -0.000204
      py      :    -0.000597
      dz2     :     0.002007  d :     0.046083
      dxz     :     0.041918
      dyz     :    -0.000071
      dx2y2   :     0.002111
      dxy     :     0.000117
      f0      :     0.000152  f :     0.000599
      f+1     :     0.000087
      f-1     :     0.000000
      f+2     :     0.000330
      f-2     :     0.000000
      f+3     :     0.000023
      f-3     :     0.000006
  2 F s       :     0.012362  s :     0.012362
      pz      :     0.070513  p :     0.069751
      px      :    -0.000496
      py      :    -0.000266
      dz2     :     0.002007  d :     0.046082
      dxz     :     0.010427
      dyz     :     0.031422
      dx2y2   :     0.000614
      dxy     :     0.001613
      f0      :     0.000152  f :     0.000599
      f+1     :     0.000022
      f-1     :     0.000066
      f+2     :     0.000083
      f-2     :     0.000248
      f+3     :     0.000023
      f-3     :     0.000006
  3 F s       :     0.012362  s :     0.012362
      pz      :     0.070513  p :     0.069751
      px      :    -0.000496
      py      :    -0.000266
      dz2     :     0.002007  d :     0.046082
      dxz     :     0.010427
      dyz     :     0.031422
      dx2y2   :     0.000614
      dxy     :     0.001613
      f0      :     0.000152  f :     0.000599
      f+1     :     0.000022
      f-1     :     0.000066
      f+2     :     0.000083
      f-2     :     0.000248
      f+3     :     0.000023
      f-3     :     0.000006


                      *****************************
                      * MAYER POPULATION ANALYSIS *
                      *****************************

  NA   - Mulliken gross atomic population
  ZA   - Total nuclear charge
  QA   - Mulliken gross atomic charge
  VA   - Mayer's total valence
  BVA  - Mayer's bonded valence
  FA   - Mayer's free valence

  ATOM       NA         ZA         QA         VA         BVA        FA
  0 C      5.4964     6.0000     0.5036     3.8459     3.1495     0.6964
  1 F      9.1678     9.0000    -0.1678     1.0818     1.0769     0.0049
  2 F      9.1679     9.0000    -0.1679     1.0818     1.0768     0.0049
  3 F      9.1679     9.0000    -0.1679     1.0817     1.0768     0.0049

  Mayer bond orders larger than 0.100000
B(  0-C ,  1-F ) :   1.0498 B(  0-C ,  2-F ) :   1.0498 B(  0-C ,  3-F ) :   1.0498 


-------
TIMINGS
-------

Total SCF time: 0 days 0 hours 0 min 12 sec 

Total time                  ....      12.903 sec
Sum of individual times     ....      12.045 sec  ( 93.4%)

Fock matrix formation       ....      10.271 sec  ( 79.6%)
  Split-RI-J                ....       1.312 sec  ( 12.8% of F)
  Chain of spheres X        ....       3.362 sec  ( 32.7% of F)
  XC integration            ....       2.277 sec  ( 22.2% of F)
    Basis function eval.    ....       0.137 sec  (  6.0% of XC)
    Density eval.           ....       0.177 sec  (  7.8% of XC)
    XC-Functional eval.     ....       0.076 sec  (  3.3% of XC)
    XC-Potential eval.      ....       0.348 sec  ( 15.3% of XC)
Diagonalization             ....       0.418 sec  (  3.2%)
Density matrix formation    ....       0.018 sec  (  0.1%)
Population analysis         ....       0.133 sec  (  1.0%)
Initial guess               ....       0.156 sec  (  1.2%)
Orbital Transformation      ....       0.000 sec  (  0.0%)
Orbital Orthonormalization  ....       0.000 sec  (  0.0%)
DIIS solution               ....       0.513 sec  (  4.0%)
Grid generation             ....       0.537 sec  (  4.2%)

Maximum memory used throughout the entire SCF-calculation: 63.1 MB


-------------------------------------------------------------------------------
                          DFT DISPERSION CORRECTION                            
                                                                               
                              DFTD3 V3.1  Rev 1                                
                              USING zero damping                               
-------------------------------------------------------------------------------
The omegaB97X-D3 functional is recognized. Fit by Chai et al.
Active option DFTDOPT                   ...         3   

molecular C6(AA) [au] = 165.831774 


            DFT-D V3
 parameters
 s6 scaling factor         :     1.0000 
 rs6 scaling factor        :     1.2810 
 s8 scaling factor         :     1.0000 
 rs8 scaling factor        :     1.0940 
 Damping factor alpha6     :    14.0000 
 Damping factor alpha8     :    16.0000 
 ad hoc parameters k1-k3   :    16.0000     1.3333    -4.0000 

 Edisp/kcal,au: -0.067701076293  -0.000107888521 
 E6   /kcal   :  -0.008741899 
 E8   /kcal   :  -0.058959177 
 % E8         :  87.087503875 

-------------------------   ----------------
Dispersion correction           -0.000107889
-------------------------   ----------------


-------------------------   --------------------
FINAL SINGLE POINT ENERGY      -337.616432868245
-------------------------   --------------------



           ************************************************************
           *        Program running with 18 parallel MPI-processes    *
           *              working on a common directory               *
           ************************************************************
------------------------------------------------------------------------------
                         ORCA SCF GRADIENT CALCULATION
------------------------------------------------------------------------------

 ... reading COSX grid (gridx3)
Gradient of the Kohn-Sham DFT energy:
Kohn-Sham wavefunction type      ... UKS
Hartree-Fock exchange scaling    ...    0.196
Number of operators              ...    2
Number of atoms                  ...    4
Basis set dimensions             ...  157
Integral neglect threshold       ... 2.5e-11
Integral primitive cutoff        ... 2.5e-12
SHARK Integral package           ... ON

Nuc. rep. gradient       (SHARK) ... done (  0.0 sec)
HCore & Overlap gradient (SHARK) ... done (  0.0 sec)
RI-J gradient            (SHARK) ... done (  0.2 sec)
COSX-gradient                    ... done (  0.4 sec)
Exchange-correlation gradient    ... done
Dispersion correction            ... done

------------------
CARTESIAN GRADIENT
------------------

WARNING: THERE ARE 3 CONSTRAINED CARTESIAN COORDINATES
   1   C   :    0.000059104    0.000000018   -0.076082961
   2   F   :    0.010369198    0.000000006    0.025555190
   3   F   :   -0.005014934    0.009894809    0.025583405
   4   F   :   -0.005015077   -0.009894774    0.025583276

Difference to translation invariance:
           :    0.0003982917    0.0000000588    0.0006389108

Difference to rotation invariance:
           :    0.0000002903   -0.0000655432   -0.0000003307

Norm of the cartesian gradient     ...    0.0900240942
RMS gradient                       ...    0.0259877175
MAX gradient                       ...    0.0760829613

-------
TIMINGS
-------

Total SCF gradient time            ...        1.197 sec

One electron gradient       ....       0.013 sec  (  1.1%)
RI-J Coulomb gradient       ....       0.174 sec  ( 14.5%)
COSX gradient               ....       0.440 sec  ( 36.7%)
XC gradient                 ....       0.175 sec  ( 14.7%)

Maximum memory used throughout the entire SCFGRAD-calculation: 37.2 MB
------------------------------------------------------------------------------
                         ORCA GEOMETRY RELAXATION STEP
------------------------------------------------------------------------------

Reading the OPT-File                    .... done
Getting information on internals        .... done
Copying old internal coords+grads       .... done
Making the new internal coordinates     .... (new redundants).... done
Validating the new internal coordinates .... (new redundants).... done
Calculating the B-matrix                .... done
Calculating the G,G- and P matrices     .... done
Transforming gradient to internals      .... done
Projecting the internal gradient        .... done
Number of atoms                         ....   4
Number of internal coordinates          ....   7
Current Energy                          ....  -337.616432868 Eh
Current gradient norm                   ....     0.090024094 Eh/bohr
Maximum allowed component of the step   ....  0.300
Current trust radius                    ....  0.300
Evaluating the initial hessian          ....  (Almloef) done
Projecting the Hessian                  .... done
Forming the augmented Hessian           .... done
Diagonalizing the augmented Hessian     .... done
Last element of RFO vector              ....  0.999858477
Lowest eigenvalues of augmented Hessian:
 -0.000193953  0.684895726  0.684895726  0.685089679 1000.000000000
Length of the computed step             ....  0.016825769
The final length of the internal step   ....  0.016825769
Converting the step to cartesian space:
 Initial RMS(Int)=    0.0063595428
Transforming coordinates:
 Iter   0:  RMS(Cart)=    0.0048073492 RMS(Int)=    0.0063595422
 Iter   1:  RMS(Cart)=    0.0000000043 RMS(Int)=    0.0000000080
Imposing constraints:
 Iter   0:  RMS(Cart)=    0.0000000001 RMS(Int)=    0.0000000010
CONVERGED
done
Storing new coordinates                 .... done

                                .--------------------.
          ----------------------|Geometry convergence|-------------------------
          Item                value                   Tolerance       Converged
          ---------------------------------------------------------------------
          RMS gradient        0.0043568571            0.0001000000      NO
          MAX gradient        0.0069246348            0.0003000000      NO
          RMS step            0.0063595428            0.0020000000      NO
          MAX step            0.0101076327            0.0040000000      NO
          ........................................................
          Max(Bonds)      0.0053      Max(Angles)    0.00
          Max(Dihed)        0.00      Max(Improp)    0.00
          ---------------------------------------------------------------------

The optimization has not yet converged - more geometry cycles are needed


    ---------------------------------------------------------------------------
                         Redundant Internal Coordinates
                            (Angstroem and degrees)

        Definition                    Value    dE/dq     Step     New-Value
    ----------------------------------------------------------------------------
     1. B(F   1,C   0)                1.3150  0.006081 -0.0047    1.3103   
     2. B(F   2,C   0)                1.3150  0.006925 -0.0053    1.3097   
     3. B(F   3,C   0)                1.3150  0.006925 -0.0053    1.3097   
     4. A(F   2,C   0,F   3)          117.50  0.024458    0.00    117.50 C 
     5. A(F   1,C   0,F   2)          117.50  0.006315   -0.00    117.50 C 
     6. A(F   1,C   0,F   3)          117.50  0.006315    0.00    117.50 C 
     7. I(F   1,F   3,F   2,C   0)     27.12 -0.063041    0.00     27.12   
    ----------------------------------------------------------------------------

         *************************************************************
         *                GEOMETRY OPTIMIZATION CYCLE   2            *
         *************************************************************
---------------------------------
CARTESIAN COORDINATES (ANGSTROEM)
---------------------------------
  C     -0.000167   -0.000000   -0.000615
  F      1.293329   -0.000000   -0.209806
  F     -0.646581    1.119636   -0.209779
  F     -0.646581   -1.119636   -0.209779

----------------------------
CARTESIAN COORDINATES (A.U.)
----------------------------
  NO LB      ZA    FRAG     MASS         X           Y           Z
   0 C     6.0000    0    12.011   -0.000316   -0.000000   -0.001161
   1 F     9.0000    0    18.998    2.444039   -0.000000   -0.396475
   2 F     9.0000    0    18.998   -1.221861    2.115806   -0.396424
   3 F     9.0000    0    18.998   -1.221861   -2.115806   -0.396424

--------------------------------
INTERNAL COORDINATES (ANGSTROEM)
--------------------------------
 C      0   0   0     0.000000000000     0.00000000     0.00000000
 F      1   0   0     1.310303119934     0.00000000     0.00000000
 F      1   2   0     1.309651326408   117.50000000     0.00000000
 F      1   2   3     1.309651271103   117.50000000   149.07803255

---------------------------
INTERNAL COORDINATES (A.U.)
---------------------------
 C      0   0   0     0.000000000000     0.00000000     0.00000000
 F      1   0   0     2.476114049097     0.00000000     0.00000000
 F      1   2   0     2.474882337838   117.50000000     0.00000000
 F      1   2   3     2.474882233326   117.50000000   149.07803255



           ************************************************************
           *        Program running with 18 parallel MPI-processes    *
           *              working on a common directory               *
           ************************************************************
------------------------------------------------------------------------------
                   ___                                                        
                  /   \      - P O W E R E D   B Y -                         
                 /     \                                                     
                 |  |  |   _    _      __       _____    __    __             
                 |  |  |  | |  | |    /  \     |  _  \  |  |  /  |          
                  \  \/   | |  | |   /    \    | | | |  |  | /  /          
                 / \  \   | |__| |  /  /\  \   | |_| |  |  |/  /          
                |  |  |   |  __  | /  /__\  \  |    /   |      \           
                |  |  |   | |  | | |   __   |  |    \   |  |\   \          
                \     /   | |  | | |  |  |  |  | |\  \  |  | \   \       
                 \___/    |_|  |_| |__|  |__|  |_| \__\ |__|  \__/        
                                                                              
                      - O R C A' S   B I G   F R I E N D -                    
                                      &                                       
                       - I N T E G R A L  F E E D E R -                       
                                                                              
 v1 FN, 2020, v2 2021                                                         
------------------------------------------------------------------------------


Reading SHARK input file /beegfs/scratch/ispackman/PFAS_EPR_calcs/benchmark/JChemEd_CF3_radical/CF3_radical_117.5_degrees_IN-PROGRESS/CF3_radical_117.5_degrees.SHARKINP.tmp ... ok
----------------------
SHARK INTEGRAL PACKAGE
----------------------

Number of atoms                             ...      4
Number of basis functions                   ...    157
Number of shells                            ...     55
Maximum angular momentum                    ...      3
Integral batch strategy                     ... SHARK/LIBINT Hybrid
RI-J (if used) integral strategy            ... SPLIT-RIJ (Revised 2003 algorithm where possible)
Printlevel                                  ...      1
Contraction scheme used                     ... SEGMENTED contraction
Coulomb Range Separation                    ... NOT USED
Exchange Range Separation                   ... Long Range
   Mu parameter                             ...  0.250000
   Scaling (regular/separated)              ...  0.195728  0.804272
Finite Nucleus Model                        ... NOT USED
Auxiliary Coulomb fitting basis             ... AVAILABLE
   # of basis functions in Aux-J            ...    196
   # of shells in Aux-J                     ...     60
   Maximum angular momentum in Aux-J        ...      4
Auxiliary J/K fitting basis                 ... NOT available
Auxiliary Correlation fitting basis         ... NOT available
Auxiliary 'external' fitting basis          ... NOT available
Integral threshold                          ...     2.500000e-11
Primitive cut-off                           ...     2.500000e-12
Primitive pair pre-selection threshold      ...     2.500000e-12

Calculating pre-screening integrals         ... done (  0.0 sec) Dimension = 55
Organizing shell pair data                  ... done (  0.0 sec)
Shell pair information
Total number of shell pairs                 ...      1540
Shell pairs after pre-screening             ...      1492
Total number of primitive shell pairs       ...      4274
Primitive shell pairs kept                  ...      3455
          la=0 lb=0:    276 shell pairs
          la=1 lb=0:    354 shell pairs
          la=1 lb=1:    120 shell pairs
          la=2 lb=0:    276 shell pairs
          la=2 lb=1:    180 shell pairs
          la=2 lb=2:     78 shell pairs
          la=3 lb=0:     90 shell pairs
          la=3 lb=1:     60 shell pairs
          la=3 lb=2:     48 shell pairs
          la=3 lb=3:     10 shell pairs

Calculating one electron integrals          ... done (  0.0 sec)
Calculating RI/J V-Matrix + Cholesky decomp.... done (  0.1 sec)
Calculating Nuclear repulsion               ... done (  0.0 sec) ENN=    122.862197544597 Eh

SHARK setup successfully completed in   0.4 seconds

Maximum memory used throughout the entire GTOINT-calculation: 15.2 MB


           ************************************************************
           *        Program running with 18 parallel MPI-processes    *
           *              working on a common directory               *
           ************************************************************

Diagonalization of the overlap matrix:
Smallest eigenvalue                        ... 2.714e-04
Time for diagonalization                   ...    0.006 sec
Threshold for overlap eigenvalues          ... 1.000e-08
Number of eigenvalues below threshold      ... 0
Time for construction of square roots      ...    0.033 sec
Total time needed                          ...    0.040 sec

-------------------
DFT GRID GENERATION
-------------------

General Integration Accuracy     IntAcc      ... 4.388
Radial Grid Type                 RadialGrid  ... OptM3 with GC (2021)
Angular Grid (max. ang.)         AngularGrid ... 4 (Lebedev-302)
Angular grid pruning method      GridPruning ... 4 (adaptive)
Weight generation scheme         WeightScheme... Becke
Basis function cutoff            BFCut       ... 1.0000e-11
Integration weight cutoff        WCut        ... 1.0000e-14
Angular grids for H and He will be reduced by one unit
Partially contracted basis set               ... off
Rotationally invariant grid construction     ... off

Total number of grid points                  ...    25764
Total number of batches                      ...      405
Average number of points per batch           ...       63
Average number of grid points per atom       ...     6441
Time for grid setup =    0.153 sec

--------------------
COSX GRID GENERATION
--------------------

GRIDX 1
-------
General Integration Accuracy     IntAcc      ... 3.816
Radial Grid Type                 RadialGrid  ... OptM3 with GC (2021)
Angular Grid (max. ang.)         AngularGrid ... 1 (Lebedev-50)
Angular grid pruning method      GridPruning ... 4 (adaptive)
Weight generation scheme         WeightScheme... Becke
Basis function cutoff            BFCut       ... 1.0000e-11
Integration weight cutoff        WCut        ... 1.0000e-14
Angular grids for H and He will be reduced by one unit
Partially contracted basis set               ... on
Rotationally invariant grid construction     ... off

Total number of grid points                  ...     3270
Total number of batches                      ...       52
Average number of points per batch           ...       62
Average number of grid points per atom       ...      818
UseSFitting                                  ... on

GRIDX 2
-------
General Integration Accuracy     IntAcc      ... 4.020
Radial Grid Type                 RadialGrid  ... OptM3 with GC (2021)
Angular Grid (max. ang.)         AngularGrid ... 2 (Lebedev-110)
Angular grid pruning method      GridPruning ... 4 (adaptive)
Weight generation scheme         WeightScheme... Becke
Basis function cutoff            BFCut       ... 1.0000e-11
Integration weight cutoff        WCut        ... 1.0000e-14
Angular grids for H and He will be reduced by one unit
Partially contracted basis set               ... on
Rotationally invariant grid construction     ... off

Total number of grid points                  ...     9151
Total number of batches                      ...      145
Average number of points per batch           ...       63
Average number of grid points per atom       ...     2288
UseSFitting                                  ... on

GRIDX 3
-------
General Integration Accuracy     IntAcc      ... 4.338
Radial Grid Type                 RadialGrid  ... OptM3 with GC (2021)
Angular Grid (max. ang.)         AngularGrid ... 3 (Lebedev-194)
Angular grid pruning method      GridPruning ... 4 (adaptive)
Weight generation scheme         WeightScheme... Becke
Basis function cutoff            BFCut       ... 1.0000e-11
Integration weight cutoff        WCut        ... 1.0000e-14
Angular grids for H and He will be reduced by one unit
Partially contracted basis set               ... on
Rotationally invariant grid construction     ... off

Total number of grid points                  ...    19665
[...]
  VA   - Mayer's total valence
  BVA  - Mayer's bonded valence
  FA   - Mayer's free valence

  ATOM       NA         ZA         QA         VA         BVA        FA
  0 C      5.4916     6.0000     0.5084     3.8439     3.1481     0.6959
  1 F      9.1696     9.0000    -0.1696     1.0795     1.0746     0.0049
  2 F      9.1694     9.0000    -0.1694     1.0799     1.0750     0.0049
  3 F      9.1694     9.0000    -0.1694     1.0799     1.0750     0.0049

  Mayer bond orders larger than 0.100000
B(  0-C ,  1-F ) :   1.0490 B(  0-C ,  2-F ) :   1.0495 B(  0-C ,  3-F ) :   1.0495 


-------
TIMINGS
-------

Total SCF time: 0 days 0 hours 0 min 5 sec 

Total time                  ....       5.131 sec
Sum of individual times     ....       4.514 sec  ( 88.0%)

Fock matrix formation       ....       3.637 sec  ( 70.9%)
  Split-RI-J                ....       0.534 sec  ( 14.7% of F)
  Chain of spheres X        ....       1.560 sec  ( 42.9% of F)
  XC integration            ....       0.668 sec  ( 18.4% of F)
    Basis function eval.    ....       0.049 sec  (  7.3% of XC)
    Density eval.           ....       0.059 sec  (  8.8% of XC)
    XC-Functional eval.     ....       0.025 sec  (  3.8% of XC)
    XC-Potential eval.      ....       0.080 sec  ( 11.9% of XC)
Diagonalization             ....       0.123 sec  (  2.4%)
Density matrix formation    ....       0.008 sec  (  0.2%)
Population analysis         ....       0.127 sec  (  2.5%)
Initial guess               ....       0.017 sec  (  0.3%)
Orbital Transformation      ....       0.000 sec  (  0.0%)
Orbital Orthonormalization  ....       0.009 sec  (  0.2%)
DIIS solution               ....       0.078 sec  (  1.5%)
Grid generation             ....       0.523 sec  ( 10.2%)

Maximum memory used throughout the entire SCF-calculation: 63.1 MB


-------------------------------------------------------------------------------
                          DFT DISPERSION CORRECTION                            
                                                                               
                              DFTD3 V3.1  Rev 1                                
                              USING zero damping                               
-------------------------------------------------------------------------------
The omegaB97X-D3 functional is recognized. Fit by Chai et al.
Active option DFTDOPT                   ...         3   

molecular C6(AA) [au] = 165.820256 


            DFT-D V3
 parameters
 s6 scaling factor         :     1.0000 
 rs6 scaling factor        :     1.2810 
 s8 scaling factor         :     1.0000 
 rs8 scaling factor        :     1.0940 
 Damping factor alpha6     :    14.0000 
 Damping factor alpha8     :    16.0000 
 ad hoc parameters k1-k3   :    16.0000     1.3333    -4.0000 

 Edisp/kcal,au: -0.065214426267  -0.000103925792 
 E6   /kcal   :  -0.008407938 
 E8   /kcal   :  -0.056806488 
 % E8         :  87.107241523 

-------------------------   ----------------
Dispersion correction           -0.000103926
-------------------------   ----------------


-------------------------   --------------------
FINAL SINGLE POINT ENERGY      -337.616547139631
-------------------------   --------------------

                                *** OPTIMIZATION RUN DONE ***

                            ***************************************
                            *     ORCA property calculations      *
                            ***************************************

                                    ---------------------
                                    Active property flags
                                    ---------------------
   (+) Dipole Moment


------------------------------------------------------------------------------
                       ORCA ELECTRIC PROPERTIES CALCULATION
------------------------------------------------------------------------------

Dipole Moment Calculation                       ... on
Quadrupole Moment Calculation                   ... off
Polarizability Calculation                      ... off
GBWName                                         ... /beegfs/scratch/ispackman/PFAS_EPR_calcs/benchmark/JChemEd_CF3_radical/CF3_radical_117.5_degrees_IN-PROGRESS/CF3_radical_117.5_degrees.gbw
Electron density                                ... /beegfs/scratch/ispackman/PFAS_EPR_calcs/benchmark/JChemEd_CF3_radical/CF3_radical_117.5_degrees_IN-PROGRESS/CF3_radical_117.5_degrees.scfp
The origin for moment calculation is the CENTER OF MASS  = ( 0.000053,  0.000000 -0.327609)

-------------
DIPOLE MOMENT
-------------
                                X             Y             Z
Electronic contribution:     -0.00184      -0.00000      -0.18753
Nuclear contribution   :     -0.00018      -0.00000       0.10110
                        -----------------------------------------
Total Dipole Moment    :     -0.00201      -0.00000      -0.08642
                        -----------------------------------------
Magnitude (a.u.)       :      0.08645
Magnitude (Debye)      :      0.21973



--------------------
Rotational spectrum 
--------------------
 
Rotational constants in cm-1:     0.351488     0.351104     0.177248 
Rotational constants in MHz : 10537.355731 10525.828710  5313.764213 

 Dipole components along the rotational axes: 
x,y,z [a.u.] :    -0.002012     0.000000    -0.086423 
x,y,z [Debye]:    -0.005113     0.000001    -0.219670 

 


           ************************************************************
           *        Program running with 18 parallel MPI-processes    *
           *              working on a common directory               *
           ************************************************************

-------------------------------------------------------------------------------
                               ORCA SCF HESSIAN
-------------------------------------------------------------------------------

                   --------- SHARK INITIALIZATION DONE ---------

Hessian of the Kohn-Sham DFT energy:
Kohn-Sham wavefunction type                      ... UKS
Hartree-Fock exchange scaling                    ...    0.196
Number of operators                              ...    2
Number of atoms                                  ...    4
Basis set dimensions                             ...  157
Integral neglect threshold                       ... 2.5e-11
Integral primitive cutoff                        ... 2.5e-12

Setting up DFT Hessian calculations              ... 

HESS GRID
---------

General Integration Accuracy     IntAcc      ... 4.629
Radial Grid Type                 RadialGrid  ... OptM3 with GC (2021)
Angular Grid (max. ang.)         AngularGrid ... 5 (Lebedev-434)
Angular grid pruning method      GridPruning ... 4 (adaptive)
Weight generation scheme         WeightScheme... Becke
Basis function cutoff            BFCut       ... 1.0000e-11
Integration weight cutoff        WCut        ... 1.0000e-14
Angular grids for H and He will be reduced by one unit
Partially contracted basis set               ... off
Rotationally invariant grid construction     ... off

Total number of grid points                  ...    39952
Total number of batches                      ...      626
Average number of points per batch           ...       63
Average number of grid points per atom       ...     9988

Building densities                               ... done   (      0.0 sec)
Calculating rho(r) on the grid                   ... done   (      0.1 sec)
Building xc-kernel on the grid                   ... done   (      0.1 sec)
                                                     done   (      0.6 sec)

Nuclear repulsion Hessian  (SHARK)               ... done   (      0.0 sec)

----------------------------------------------
Forming right-hand sides of CP-SCF equations     ...
----------------------------------------------
One electron integral derivatives  (SHARK)       ... done   (      0.0 sec)
Transforming the overlap derivative matrices     ... done   (      0.0 sec)
Making the Q(x) pseudodensities                  ... done   (      0.0 sec)
Adding the E*S(x)*S(y) terms to the Hessian      ... done   (      0.0 sec)
Calculating energy weighted overlap derivatives  ... done   (      0.0 sec)
Two electron integral derivatives (SHARK-RI)     ... done   (      2.4 sec)
Exchange-correlation integral derivatives        ... done   (      2.2 sec)
tr(F(y)Q(x)) contribution to the Hessian         ... done   (      0.0 sec)
Response fock operator R(S(x)) (SHARK-RIJCOSX)   ... done   (      0.9 sec)
XC Response fock operator R(S(x))                ... done   (      0.4 sec)
tr(F(y)S(x)) contribution to the Hessian         ... done   (      0.0 sec)
Transforming and finalizing RHSs                 ... done   (      0.1 sec)

----------------------------------------------
Solving the CP-SCF equations (RIJCOSX)           ...
----------------------------------------------
     CP-SCF ITERATION   0:   1.6628e-01 (   0.4 sec   0/ 12 done)
     CP-SCF ITERATION   1:   5.1959e-02 (   0.5 sec   0/ 12 done)
     CP-SCF ITERATION   2:   2.1971e-02 (   0.5 sec   0/ 12 done)
     CP-SCF ITERATION   3:   8.0009e-03 (   0.5 sec   0/ 12 done)
     CP-SCF ITERATION   4:   1.7827e-03 (   0.4 sec   0/ 12 done)
     CP-SCF ITERATION   5:   6.8892e-04 (   0.5 sec   1/ 12 done)
     CP-SCF ITERATION   6:   2.1711e-04 (   0.5 sec   5/ 12 done)
     CP-SCF ITERATION   7:   5.1585e-05 (   0.4 sec  12/ 12 done)
                    *** THE CP-SCF HAS CONVERGED ***

                                                 ... done   (      3.9 sec)
Forming perturbed density Hessian contributions  ... done   (      0.0 sec)
2nd integral derivative contribs (SHARK-RI)      ... done   (      6.3 sec)
Exchange-correlation Hessian                     ... done   (      0.9 sec)
Dispersion correction in the Hessian             ... done   (      0.1 sec)
Dipole derivatives                               ... (center of mass:  0.000053,  0.000000 -0.327609)done   (      0.1 sec)

Total SCF Hessian time: 0 days 0 hours 0 min 18 sec 

Writing the Hessian file to the disk             ... done


Maximum memory used throughout the entire SCFHESS-calculation: 143.8 MB

-----------------------
VIBRATIONAL FREQUENCIES
-----------------------

Scaling factor for frequencies =  1.000000000  (already applied!)

   0:         0.00 cm**-1
   1:         0.00 cm**-1
   2:         0.00 cm**-1
   3:         0.00 cm**-1
   4:         0.00 cm**-1
   5:         0.00 cm**-1
   6:       474.47 cm**-1
   7:       474.50 cm**-1
   8:       510.26 cm**-1
   9:       967.26 cm**-1
  10:      1364.31 cm**-1
  11:      1367.92 cm**-1


------------
NORMAL MODES
------------

These modes are the Cartesian displacements weighted by the diagonal matrix
M(i,i)=1/sqrt(m[i]) where m[i] is the mass of the displaced atom
Thus, these vectors are normalized but *not* orthogonal

                  0          1          2          3          4          5    
      0       0.000000   0.000000   0.000000   0.000000   0.000000   0.000000
      1       0.000000   0.000000   0.000000   0.000000   0.000000   0.000000
      2       0.000000   0.000000   0.000000   0.000000   0.000000   0.000000
      3       0.000000   0.000000   0.000000   0.000000   0.000000   0.000000
      4       0.000000   0.000000   0.000000   0.000000   0.000000   0.000000
      5       0.000000   0.000000   0.000000   0.000000   0.000000   0.000000
      6       0.000000   0.000000   0.000000   0.000000   0.000000   0.000000
      7       0.000000   0.000000   0.000000   0.000000   0.000000   0.000000
      8       0.000000   0.000000   0.000000   0.000000   0.000000   0.000000
      9       0.000000   0.000000   0.000000   0.000000   0.000000   0.000000
     10       0.000000   0.000000   0.000000   0.000000   0.000000   0.000000
     11       0.000000   0.000000   0.000000   0.000000   0.000000   0.000000
                  6          7          8          9         10         11    
      0      -0.000184  -0.345774  -0.004045  -0.004719   0.904304  -0.000073
      1      -0.345905   0.000184   0.000000  -0.000001  -0.000073  -0.904290
      2       0.000005   0.013250  -0.845639   0.546787   0.002343  -0.000000
      3      -0.000248  -0.467900   0.245493   0.470921  -0.338852   0.000027
      4       0.609251  -0.000323  -0.000001   0.000000   0.000003   0.040445
      5      -0.000014  -0.026347   0.177828  -0.115497   0.061150  -0.000005
      6       0.464971   0.343007  -0.121469  -0.233969  -0.116446  -0.129981
      7      -0.195036   0.460990   0.223412   0.406151   0.131537   0.265624
      8      -0.020436   0.008996   0.178403  -0.115098  -0.031320  -0.053405
      9      -0.464607   0.343500  -0.121467  -0.233969  -0.116425   0.130000
     10      -0.195526  -0.460782  -0.223411  -0.406151  -0.131493   0.265646
     11       0.020446   0.008974   0.178403  -0.115097  -0.031311   0.053410


-----------
IR SPECTRUM
-----------

 Mode   freq       eps      Int      T**2         TX        TY        TZ
       cm**-1   L/(mol*cm) km/mol    a.u.
----------------------------------------------------------------------------
  6:    474.47   0.000486    2.46  0.000320  (-0.000010 -0.017881  0.000000)
  7:    474.50   0.000487    2.46  0.000320  (-0.017894  0.000010  0.000467)
  8:    510.26   0.001643    8.30  0.001005  (-0.000200 -0.000000 -0.031695)
  9:    967.26   0.001462    7.39  0.000472  (-0.000660 -0.000000  0.021707)
 10:   1364.31   0.072068  364.20  0.016484  ( 0.128392 -0.000010  0.000154)
 11:   1367.92   0.072150  364.62  0.016460  (-0.000010 -0.128295 -0.000000)

* The epsilon (eps) is given for a Dirac delta lineshape.
** The dipole moment derivative (T) already includes vibrational overlap.

The first frequency considered to be a vibration is 6
The total number of vibrations considered is 6


--------------------------
THERMOCHEMISTRY AT 298.15K
--------------------------

Temperature         ... 298.15 K
Pressure            ... 1.00 atm
Total Mass          ... 69.00 AMU

Throughout the following assumptions are being made:
  (1) The electronic state is orbitally nondegenerate
      but the spin degeneracy is treated
  (2) There are no thermally accessible electronically excited states
  (3) Hindered rotations indicated by low frequency modes are not
      treated as such but are treated as vibrations and this may
      cause some error
  (4) All equations used are the standard statistical mechanics
      equations for an ideal gas
  (5) All vibrations are strictly harmonic

freq.     474.47  E(vib)   ...       0.15 
freq.     474.50  E(vib)   ...       0.15 
freq.     510.26  E(vib)   ...       0.14 
freq.     967.26  E(vib)   ...       0.03 
freq.    1364.31  E(vib)   ...       0.01 
freq.    1367.92  E(vib)   ...       0.01 

------------
INNER ENERGY
------------

The inner energy is: U= E(el) + E(ZPE) + E(vib) + E(rot) + E(trans)
    E(el)   - is the total energy from the electronic structure calculation
              = E(kin-el) + E(nuc-el) + E(el-el) + E(nuc-nuc)
    E(ZPE)  - the the zero temperature vibrational energy from the frequency calculation
    E(vib)  - the the finite temperature correction to E(ZPE) due to population
              of excited vibrational states
    E(rot)  - is the rotational thermal energy
    E(trans)- is the translational thermal energy

Summary of contributions to the inner energy U:
Electronic energy                ...   -337.61654714 Eh
Zero point energy                ...      0.01175244 Eh       7.37 kcal/mol
Thermal vibrational correction   ...      0.00076291 Eh       0.48 kcal/mol
Thermal rotational correction    ...      0.00141627 Eh       0.89 kcal/mol
Thermal translational correction ...      0.00141627 Eh       0.89 kcal/mol
-----------------------------------------------------------------------
Total thermal energy                   -337.60119925 Eh


Summary of corrections to the electronic energy:
(perhaps to be used in another calculation)
Total thermal correction                  0.00359545 Eh       2.26 kcal/mol
Non-thermal (ZPE) correction              0.01175244 Eh       7.37 kcal/mol
-----------------------------------------------------------------------
Total correction                          0.01534789 Eh       9.63 kcal/mol


--------
ENTHALPY
--------

The enthalpy is H = U + kB*T
                kB is Boltzmann's constant
Total free energy                 ...   -337.60119925 Eh 
Thermal Enthalpy correction       ...      0.00094421 Eh       0.59 kcal/mol
-----------------------------------------------------------------------
Total Enthalpy                    ...   -337.60025504 Eh


Note: Rotational entropy computed according to Herzberg 
Infrared and Raman Spectra, Chapter V,1, Van Nostrand Reinhold, 1945 
Point Group:  Cs, Symmetry Number:   1  
Rotational constants in cm-1:     0.351488     0.351104     0.177248 

Vibrational entropy computed according to the QRRHO of S. Grimme
Chem.Eur.J. 2012 18 9955


-------
ENTROPY
-------

The entropy contributions are T*S = T*(S(el)+S(vib)+S(rot)+S(trans))
     S(el)   - electronic entropy
     S(vib)  - vibrational entropy
     S(rot)  - rotational entropy
     S(trans)- translational entropy
The entropies will be listed as multiplied by the temperature to get
units of energy

Electronic entropy                ...      0.00065446 Eh      0.41 kcal/mol
Vibrational entropy               ...      0.00106174 Eh      0.67 kcal/mol
Rotational entropy                ...      0.01131536 Eh      7.10 kcal/mol
Translational entropy             ...      0.01834582 Eh     11.51 kcal/mol
-----------------------------------------------------------------------
Final entropy term                ...      0.03137737 Eh     19.69 kcal/mol

In case the symmetry of your molecule has not been determined correctly
or in case you have a reason to use a different symmetry number we print 
out the resulting rotational entropy values for sn=1,12 :
 --------------------------------------------------------
|  sn= 1 | S(rot)=       0.01131536 Eh      7.10 kcal/mol|
|  sn= 2 | S(rot)=       0.01066090 Eh      6.69 kcal/mol|
|  sn= 3 | S(rot)=       0.01027807 Eh      6.45 kcal/mol|
|  sn= 4 | S(rot)=       0.01000644 Eh      6.28 kcal/mol|
|  sn= 5 | S(rot)=       0.00979576 Eh      6.15 kcal/mol|
|  sn= 6 | S(rot)=       0.00962361 Eh      6.04 kcal/mol|
|  sn= 7 | S(rot)=       0.00947806 Eh      5.95 kcal/mol|
|  sn= 8 | S(rot)=       0.00935199 Eh      5.87 kcal/mol|
|  sn= 9 | S(rot)=       0.00924078 Eh      5.80 kcal/mol|
|  sn=10 | S(rot)=       0.00914130 Eh      5.74 kcal/mol|
|  sn=11 | S(rot)=       0.00905131 Eh      5.68 kcal/mol|
|  sn=12 | S(rot)=       0.00896915 Eh      5.63 kcal/mol|
 --------------------------------------------------------


-------------------
GIBBS FREE ENERGY
-------------------

The Gibbs free energy is G = H - T*S

Total enthalpy                    ...   -337.60025504 Eh 
Total entropy correction          ...     -0.03137737 Eh    -19.69 kcal/mol
-----------------------------------------------------------------------
Final Gibbs free energy         ...   -337.63163241 Eh

For completeness - the Gibbs free energy minus the electronic energy
G-E(el)                           ...     -0.01508527 Eh     -9.47 kcal/mol


Timings for individual modules:

Sum of individual times         ...       87.497 sec (=   1.458 min)
GTO integral calculation        ...       11.348 sec (=   0.189 min)  13.0 %
SCF iterations                  ...       43.916 sec (=   0.732 min)  50.2 %
SCF Gradient evaluation         ...       10.793 sec (=   0.180 min)  12.3 %
Geometry relaxation             ...        0.185 sec (=   0.003 min)   0.2 %
Analytical frequency calculation...       21.255 sec (=   0.354 min)  24.3 %
                             ****ORCA TERMINATED NORMALLY****
TOTAL RUN TIME: 0 days 0 hours 1 minutes 37 seconds 980 msec

slurmID:    32260075
totalRuntime[s]:    98.034656705
