
                                 *****************
                                 * O   R   C   A *
                                 *****************

                                            #,                                       
                                            ###                                      
                                            ####                                     
                                            #####                                    
                                            ######                                   
                                           ########,                                 
                                     ,,################,,,,,                         
                               ,,#################################,,                 
                          ,,##########################################,,             
                       ,#########################################, ''#####,          
                    ,#############################################,,   '####,        
                  ,##################################################,,,,####,       
                ,###########''''           ''''###############################       
              ,#####''   ,,,,##########,,,,          '''####'''          '####       
            ,##' ,,,,###########################,,,                        '##       
           ' ,,###''''                  '''############,,,                           
         ,,##''                                '''############,,,,        ,,,,,,###''
      ,#''                                            '''#######################'''  
     '                                                          ''''####''''         
             ,#######,   #######,   ,#######,      ##                                
            ,#'     '#,  ##    ##  ,#'     '#,    #''#        ######   ,####,        
            ##       ##  ##   ,#'  ##            #'  '#       #        #'  '#        
            ##       ##  #######   ##           ,######,      #####,   #    #        
            '#,     ,#'  ##    ##  '#,     ,#' ,#      #,         ##   #,  ,#        
             '#######'   ##     ##  '#######'  #'      '#     #####' # '####'        



                  #######################################################
                  #                        -***-                        #
                  #          Department of theory and spectroscopy      #
                  #    Directorship and core code : Frank Neese         #
                  #        Max Planck Institute fuer Kohlenforschung    #
                  #                Kaiser Wilhelm Platz 1               #
                  #                 D-45470 Muelheim/Ruhr               #
                  #                      Germany                        #
                  #                                                     #
                  #                  All rights reserved                #
                  #                        -***-                        #
                  #######################################################


                         Program Version 5.0.4 -  RELEASE  -


 With contributions from (in alphabetic order):
   Daniel Aravena         : Magnetic Suceptibility
   Michael Atanasov       : Ab Initio Ligand Field Theory (pilot matlab implementation)
   Alexander A. Auer      : GIAO ZORA, VPT2 properties, NMR spectrum
   Ute Becker             : Parallelization
   Giovanni Bistoni       : ED, misc. LED, open-shell LED, HFLD
   Martin Brehm           : Molecular dynamics
   Dmytro Bykov           : SCF Hessian
   Vijay G. Chilkuri      : MRCI spin determinant printing, contributions to CSF-ICE
   Dipayan Datta          : RHF DLPNO-CCSD density
   Achintya Kumar Dutta   : EOM-CC, STEOM-CC
   Dmitry Ganyushin       : Spin-Orbit,Spin-Spin,Magnetic field MRCI
   Miquel Garcia          : C-PCM and meta-GGA Hessian, CC/C-PCM, Gaussian charge scheme
   Yang Guo               : DLPNO-NEVPT2, F12-NEVPT2, CIM, IAO-localization
   Andreas Hansen         : Spin unrestricted coupled pair/coupled cluster methods
   Benjamin Helmich-Paris : MC-RPA, TRAH-SCF, COSX integrals
   Lee Huntington         : MR-EOM, pCC
   Robert Izsak           : Overlap fitted RIJCOSX, COSX-SCS-MP3, EOM
   Marcus Kettner         : VPT2
   Christian Kollmar      : KDIIS, OOCD, Brueckner-CCSD(T), CCSD density, CASPT2, CASPT2-K
   Simone Kossmann        : Meta GGA functionals, TD-DFT gradient, OOMP2, MP2 Hessian
   Martin Krupicka        : Initial AUTO-CI
   Lucas Lang             : DCDCAS
   Marvin Lechner         : AUTO-CI (C++ implementation), FIC-MRCC
   Dagmar Lenk            : GEPOL surface, SMD
   Dimitrios Liakos       : Extrapolation schemes; Compound Job, initial MDCI parallelization
   Dimitrios Manganas     : Further ROCIS development; embedding schemes
   Dimitrios Pantazis     : SARC Basis sets
   Anastasios Papadopoulos: AUTO-CI, single reference methods and gradients
   Taras Petrenko         : DFT Hessian,TD-DFT gradient, ASA, ECA, R-Raman, ABS, FL, XAS/XES, NRVS
   Peter Pinski           : DLPNO-MP2, DLPNO-MP2 Gradient
   Christoph Reimann      : Effective Core Potentials
   Marius Retegan         : Local ZFS, SOC
   Christoph Riplinger    : Optimizer, TS searches, QM/MM, DLPNO-CCSD(T), (RO)-DLPNO pert. Triples
   Tobias Risthaus        : Range-separated hybrids, TD-DFT gradient, RPA, STAB
   Michael Roemelt        : Original ROCIS implementation
   Masaaki Saitow         : Open-shell DLPNO-CCSD energy and density
   Barbara Sandhoefer     : DKH picture change effects
   Avijit Sen             : IP-ROCIS
   Kantharuban Sivalingam : CASSCF convergence, NEVPT2, FIC-MRCI
   Bernardo de Souza      : ESD, SOC TD-DFT
   Georgi Stoychev        : AutoAux, RI-MP2 NMR, DLPNO-MP2 response
   Willem Van den Heuvel  : Paramagnetic NMR
   Boris Wezisla          : Elementary symmetry handling
   Frank Wennmohs         : Technical directorship


 We gratefully acknowledge several colleagues who have allowed us to
 interface, adapt or use parts of their codes:
   Stefan Grimme, W. Hujo, H. Kruse, P. Pracht,  : VdW corrections, initial TS optimization,
                  C. Bannwarth, S. Ehlert          DFT functionals, gCP, sTDA/sTD-DF
   Ed Valeev, F. Pavosevic, A. Kumar             : LibInt (2-el integral package), F12 methods
   Garnet Chan, S. Sharma, J. Yang, R. Olivares  : DMRG
   Ulf Ekstrom                                   : XCFun DFT Library
   Mihaly Kallay                                 : mrcc  (arbitrary order and MRCC methods)
   Jiri Pittner, Ondrej Demel                    : Mk-CCSD
   Frank Weinhold                                : gennbo (NPA and NBO analysis)
   Christopher J. Cramer and Donald G. Truhlar   : smd solvation model
   Lars Goerigk                                  : TD-DFT with DH, B97 family of functionals
   V. Asgeirsson, H. Jonsson                     : NEB implementation
   FAccTs GmbH                                   : IRC, NEB, NEB-TS, DLPNO-Multilevel, CI-OPT
                                                   MM, QMMM, 2- and 3-layer-ONIOM, Crystal-QMMM,
                                                   LR-CPCM, SF, NACMEs, symmetry and pop. for TD-DFT,
                                                   nearIR, NL-DFT gradient (VV10), updates on ESD,
                                                   ML-optimized integration grids
   S Lehtola, MJT Oliveira, MAL Marques          : LibXC Library
   Liviu Ungur et al                             : ANISO software


 Your calculation uses the libint2 library for the computation of 2-el integrals
 For citations please refer to: http://libint.valeyev.net

 Your ORCA version has been built with support for libXC version: 5.1.0
 For citations please refer to: https://tddft.org/programs/libxc/

 This ORCA versions uses:
   CBLAS   interface :  Fast vector & matrix operations
   LAPACKE interface :  Fast linear algebra routines
   SCALAPACK package :  Parallel linear algebra routines
   Shared memory     :  Shared parallel matrices
   BLAS/LAPACK       :  OpenBLAS 0.3.15  USE64BITINT DYNAMIC_ARCH NO_AFFINITY SkylakeX SINGLE_THREADED
        Core in use  :  SkylakeX
   Copyright (c) 2011-2014, The OpenBLAS Project


Your calculation utilizes the atom-pairwise dispersion correction
with the zero-damping scheme (D30)
Cite in your paper:
S.Grimme, J.Antony, S.Ehrlich and H.Krieg, J.Chem.Phys., 132, (2010), 154104 
   

XCFun DFT library Copyright 2009-2010 Ulf Ekstrom and contributors.
See http://admol.org/xcfun for more information.
This is free software; see the source code for copying conditions.
There is ABSOLUTELY NO WARRANTY; not even for MERCHANTABILITY or FITNESS FOR A PARTICULAR PURPOSE.
For details see the documentation.
Scientific users of this library should cite U. Ekstrom, L. Visscher, R. Bast, A. J. Thorvaldsen and K. Ruud;
J.Chem.Theor.Comp. 2010, DOI: 10.1021/ct100117s
XCFun Version 0.99 

================================================================================

----- Orbital basis set information -----
Your calculation utilizes the basis: def2-TZVPD
   F. Weigend and R. Ahlrichs, Phys. Chem. Chem. Phys. 7, 3297 (2005).
   D. Rappoport and F. Furche, J. Chem. Phys. 133 134105 (2010).

----- AuxJ basis set information -----
Your calculation utilizes the auxiliary basis: def2/J
   F. Weigend, Phys. Chem. Chem. Phys. 8, 1057 (2006).

================================================================================
                                        WARNINGS
                       Please study these warnings very carefully!
================================================================================


WARNING: Geometry Optimization
  ===> : Switching off AutoStart
         For restart on a previous wavefunction, please use MOREAD

INFO   : the flag for use of the SHARK integral package has been found!

================================================================================
                                       INPUT FILE
================================================================================
NAME = /beegfs/scratch/ispackman/PFAS_EPR_calcs/benchmark/JChemEd_CF3_radical/CF3_radical_96.5_degrees_IN-PROGRESS/CF3_radical_96.5_degrees.inp
|  1> ! UKS TightSCF wB97x-D3 def2-TZVPD xyzfile opt freq
|  2> 
|  3> # CF3 radical 96.5 degrees fixed
|  4> 
|  5> %maxcore 1000
|  6> %pal
|  7> nprocs 18
|  8> end
|  9> 
| 10> %geom Constraints
| 11>         { A * 0 * C }
| 12>     end
| 13> end
| 14> * xyz 0 2
| 15> C 0.00 0.00 0.00
| 16> F 1.1328368012 0.0000000000 -0.6677617702
| 17> F -0.5664184006 0.9810654482 -0.6677617702
| 18> F -0.5664184006 -0.9810654482 -0.6677617702
| 19> **                         ****END OF INPUT****
================================================================================

                       *****************************
                       * Geometry Optimization Run *
                       *****************************

Geometry optimization settings:
Update method            Update   .... BFGS
Choice of coordinates    CoordSys .... Z-matrix Internals
Initial Hessian          InHess   .... Almoef's Model

Convergence Tolerances:
Energy Change            TolE     ....  5.0000e-06 Eh
Max. Gradient            TolMAXG  ....  3.0000e-04 Eh/bohr
RMS Gradient             TolRMSG  ....  1.0000e-04 Eh/bohr
Max. Displacement        TolMAXD  ....  4.0000e-03 bohr
RMS Displacement         TolRMSD  ....  2.0000e-03 bohr
Strict Convergence                ....  False
------------------------------------------------------------------------------
                        ORCA OPTIMIZATION COORDINATE SETUP
------------------------------------------------------------------------------

The optimization will be done in new redundant internal coordinates
Making redundant internal coordinates   ...  (new redundants) done
Evaluating the initial hessian          ...  (Almloef) done
Evaluating the coordinates              ...  done
Calculating the B-matrix                .... done
Calculating the G-matrix                .... done
Diagonalizing the G-matrix              .... done
Imposing constraints:
 Iter   0:  RMS(Cart)=    0.0000000000 RMS(Int)=    0.0000000000
CONVERGED
Will constrain atom 0 coordinate 1 
Will constrain atom 0 coordinate 2 
Will constrain atom 1 coordinate 2 
The first mode is                       ....    1
The number of degrees of freedom        ....    6
Storing new coordinates                 .... done

    -----------------------------------------------------------------
                    Redundant Internal Coordinates


    -----------------------------------------------------------------
         Definition                    Initial Value    Approx d2E/dq
    -----------------------------------------------------------------
      1. B(F   1,C   0)                  1.3150         0.684896   
      2. B(F   2,C   0)                  1.3150         0.684896   
      3. B(F   3,C   0)                  1.3150         0.684896   
      4. A(F   2,C   0,F   3)           96.5000         0.440101 C 
      5. A(F   1,C   0,F   2)           96.5000         0.440101 C 
      6. A(F   1,C   0,F   3)           96.5000         0.440101 C 
      7. I(F   1,F   3,F   2,C   0)     80.2119         0.002572   
    -----------------------------------------------------------------

Number of atoms                         .... 4
Number of degrees of freedom            .... 7

         *************************************************************
         *                GEOMETRY OPTIMIZATION CYCLE   1            *
         *************************************************************
---------------------------------
CARTESIAN COORDINATES (ANGSTROEM)
---------------------------------
  C      0.000000    0.000000    0.000000
  F      1.132837    0.000000   -0.667762
  F     -0.566418    0.981065   -0.667762
  F     -0.566418   -0.981065   -0.667762

----------------------------
CARTESIAN COORDINATES (A.U.)
----------------------------
  NO LB      ZA    FRAG     MASS         X           Y           Z
   0 C     6.0000    0    12.011    0.000000    0.000000    0.000000
   1 F     9.0000    0    18.998    2.140751    0.000000   -1.261887
   2 F     9.0000    0    18.998   -1.070376    1.853945   -1.261887
   3 F     9.0000    0    18.998   -1.070376   -1.853945   -1.261887

--------------------------------
INTERNAL COORDINATES (ANGSTROEM)
--------------------------------
 C      0   0   0     0.000000000000     0.00000000     0.00000000
 F      1   0   0     1.314999999960     0.00000000     0.00000000
 F      1   2   0     1.314999999974    96.50000000     0.00000000
 F      1   2   3     1.314999999974    96.50000000    97.33405060

---------------------------
INTERNAL COORDINATES (A.U.)
---------------------------
 C      0   0   0     0.000000000000     0.00000000     0.00000000
 F      1   0   0     2.484989866030     0.00000000     0.00000000
 F      1   2   0     2.484989866057    96.50000000     0.00000000
 F      1   2   3     2.484989866057    96.50000000    97.33405060

---------------------
BASIS SET INFORMATION
---------------------
There are 2 groups of distinct atoms

 Group   1 Type C   : 12s6p3d1f contracted to 6s3p3d1f pattern {621111/411/111/1}
 Group   2 Type F   : 12s7p3d1f contracted to 6s4p3d1f pattern {621111/4111/111/1}

Atom   0C    basis set group =>   1
Atom   1F    basis set group =>   2
Atom   2F    basis set group =>   2
Atom   3F    basis set group =>   2
---------------------------------
AUXILIARY/J BASIS SET INFORMATION
---------------------------------
There are 2 groups of distinct atoms

 Group   1 Type C   : 12s5p4d2f1g contracted to 6s4p3d1f1g pattern {711111/2111/211/2/1}
 Group   2 Type F   : 12s5p4d2f1g contracted to 6s4p3d1f1g pattern {711111/2111/211/2/1}

Atom   0C    basis set group =>   1
Atom   1F    basis set group =>   2
Atom   2F    basis set group =>   2
Atom   3F    basis set group =>   2


           ************************************************************
           *        Program running with 18 parallel MPI-processes    *
           *              working on a common directory               *
           ************************************************************
------------------------------------------------------------------------------
                           ORCA GTO INTEGRAL CALCULATION
                           -- RI-GTO INTEGRALS CHOSEN --
------------------------------------------------------------------------------
------------------------------------------------------------------------------
                   ___                                                        
                  /   \      - P O W E R E D   B Y -                         
                 /     \                                                     
                 |  |  |   _    _      __       _____    __    __             
                 |  |  |  | |  | |    /  \     |  _  \  |  |  /  |          
                  \  \/   | |  | |   /    \    | | | |  |  | /  /          
                 / \  \   | |__| |  /  /\  \   | |_| |  |  |/  /          
                |  |  |   |  __  | /  /__\  \  |    /   |      \           
                |  |  |   | |  | | |   __   |  |    \   |  |\   \          
                \     /   | |  | | |  |  |  |  | |\  \  |  | \   \       
                 \___/    |_|  |_| |__|  |__|  |_| \__\ |__|  \__/        
                                                                              
                      - O R C A' S   B I G   F R I E N D -                    
                                      &                                       
                       - I N T E G R A L  F E E D E R -                       
                                                                              
 v1 FN, 2020, v2 2021                                                         
------------------------------------------------------------------------------


Reading SHARK input file /beegfs/scratch/ispackman/PFAS_EPR_calcs/benchmark/JChemEd_CF3_radical/CF3_radical_96.5_degrees_IN-PROGRESS/CF3_radical_96.5_degrees.SHARKINP.tmp ... ok
----------------------
SHARK INTEGRAL PACKAGE
----------------------

Number of atoms                             ...      4
Number of basis functions                   ...    157
Number of shells                            ...     55
Maximum angular momentum                    ...      3
Integral batch strategy                     ... SHARK/LIBINT Hybrid
RI-J (if used) integral strategy            ... SPLIT-RIJ (Revised 2003 algorithm where possible)
Printlevel                                  ...      1
Contraction scheme used                     ... SEGMENTED contraction
Coulomb Range Separation                    ... NOT USED
Exchange Range Separation                   ... Long Range
   Mu parameter                             ...  0.250000
   Scaling (regular/separated)              ...  0.195728  0.804272
Finite Nucleus Model                        ... NOT USED
Auxiliary Coulomb fitting basis             ... AVAILABLE
   # of basis functions in Aux-J            ...    196
   # of shells in Aux-J                     ...     60
   Maximum angular momentum in Aux-J        ...      4
Auxiliary J/K fitting basis                 ... NOT available
Auxiliary Correlation fitting basis         ... NOT available
Auxiliary 'external' fitting basis          ... NOT available
Integral threshold                          ...     2.500000e-11
Primitive cut-off                           ...     2.500000e-12
Primitive pair pre-selection threshold      ...     2.500000e-12

Calculating pre-screening integrals         ... done (  0.1 sec) Dimension = 55
Organizing shell pair data                  ... done (  0.0 sec)
Shell pair information
Total number of shell pairs                 ...      1540
Shell pairs after pre-screening             ...      1516
Total number of primitive shell pairs       ...      4274
Primitive shell pairs kept                  ...      3587
          la=0 lb=0:    282 shell pairs
          la=1 lb=0:    360 shell pairs
          la=1 lb=1:    120 shell pairs
          la=2 lb=0:    282 shell pairs
          la=2 lb=1:    180 shell pairs
          la=2 lb=2:     78 shell pairs
          la=3 lb=0:     96 shell pairs
          la=3 lb=1:     60 shell pairs
          la=3 lb=2:     48 shell pairs
          la=3 lb=3:     10 shell pairs

Calculating one electron integrals          ... done (  0.0 sec)
Calculating RI/J V-Matrix + Cholesky decomp.... done (  0.0 sec)
Calculating Nuclear repulsion               ... done (  0.0 sec) ENN=    130.727336894909 Eh

SHARK setup successfully completed in   0.3 seconds

Maximum memory used throughout the entire GTOINT-calculation: 15.2 MB


           ************************************************************
           *        Program running with 18 parallel MPI-processes    *
           *              working on a common directory               *
           ************************************************************
-------------------------------------------------------------------------------
                                 ORCA SCF
-------------------------------------------------------------------------------

------------
SCF SETTINGS
------------
Hamiltonian:
 Density Functional     Method          .... DFT(GTOs)
 Exchange Functional    Exchange        .... WB97X-D3
 Correlation Functional Correlation     .... WB97X-D3
 Gradients option       PostSCFGGA      .... off
 Hybrid DFT is turned on
   Fraction HF Exchange ScalHFX         ....  0.195728
   Scaling of DF-GGA-X  ScalDFX         ....  0.000000
   Scaling of DF-GGA-C  ScalDFC         ....  1.000000
   Scaling of DF-LDA-C  ScalLDAC        ....  1.000000
   Perturbative correction              ....  0.000000
   Density functional embedding theory  .... OFF
 Long-range corrected/Screened/Range-Separated Hybrid DFT is turned on
   Amount of maximum screened exact exchange              ....  0.804272
   Range separation parameter mu (erf(mu*r12)/r12)        ....  0.250000
 RI-approximation to the Coulomb term is turned on
   Number of AuxJ basis functions       .... 196
   RIJ-COSX (HFX calculated with COS-X)).... on


General Settings:
 Integral files         IntName         .... /beegfs/scratch/ispackman/PFAS_EPR_calcs/benchmark/JChemEd_CF3_radical/CF3_radical_96.5_degrees_IN-PROGRESS/CF3_radical_96.5_degrees
 Hartree-Fock type      HFTyp           .... UHF
 Total Charge           Charge          ....    0
 Multiplicity           Mult            ....    2
 Number of Electrons    NEL             ....   33
 Basis Dimension        Dim             ....  157
 Nuclear Repulsion      ENuc            ....    130.7273368949 Eh

Convergence Acceleration:
 DIIS                   CNVDIIS         .... on
   Start iteration      DIISMaxIt       ....    12
   Startup error        DIISStart       ....  0.200000
   # of expansion vecs  DIISMaxEq       ....     5
   Bias factor          DIISBfac        ....   1.050
   Max. coefficient     DIISMaxC        ....  10.000
 Trust-Rad. Augm. Hess. CNVTRAH         .... auto
   Auto Start mean grad. ratio tolernc. ....  1.125000
   Auto Start start iteration           ....    20
   Auto Start num. interpolation iter.  ....    10
   Max. Number of Micro iterations      ....    16
   Max. Number of Macro iterations      .... Maxiter - #DIIS iter
   Number of Davidson start vectors     ....     2
   Converg. threshold I  (grad. norm)   ....   1.000e-05
   Converg. threshold II (energy diff.) ....   1.000e-08
   Grad. Scal. Fac. for Micro threshold ....   0.100
   Minimum threshold for Micro iter.    ....   0.010
   NR start threshold (gradient norm)   ....   0.001
   Initial trust radius                 ....   0.400
   Minimum AH scaling param. (alpha)    ....   1.000
   Maximum AH scaling param. (alpha)    .... 1000.000
   Orbital update algorithm             .... Taylor
   White noise on init. David. guess    .... on
   Maximum white noise                  ....   0.010
   Quad. conv. algorithm                .... NR
 SOSCF                  CNVSOSCF        .... off
 Level Shifting         CNVShift        .... on
   Level shift para.    LevelShift      ....    0.2500
   Turn off err/grad.   ShiftErr        ....    0.0010
 Zerner damping         CNVZerner       .... off
 Static damping         CNVDamp         .... on
   Fraction old density DampFac         ....    0.7000
   Max. Damping (<1)    DampMax         ....    0.9800
   Min. Damping (>=0)   DampMin         ....    0.0000
   Turn off err/grad.   DampErr         ....    0.1000
 Fernandez-Rico         CNVRico         .... off

SCF Procedure:
 Maximum # iterations   MaxIter         ....   125
 SCF integral mode      SCFMode         .... Direct
   Integral package                     .... SHARK and LIBINT hybrid scheme
 Reset frequency        DirectResetFreq ....    20
 Integral Threshold     Thresh          ....  2.500e-11 Eh
 Primitive CutOff       TCut            ....  2.500e-12 Eh

Convergence Tolerance:
 Convergence Check Mode ConvCheckMode   .... Total+1el-Energy
 Convergence forced     ConvForced      .... 0
 Energy Change          TolE            ....  1.000e-08 Eh
 1-El. energy change                    ....  1.000e-05 Eh
 DIIS Error             TolErr          ....  5.000e-07


Diagonalization of the overlap matrix:
Smallest eigenvalue                        ... 3.533e-04
Time for diagonalization                   ...    0.007 sec
Threshold for overlap eigenvalues          ... 1.000e-08
Number of eigenvalues below threshold      ... 0
Time for construction of square roots      ...    0.020 sec
Total time needed                          ...    0.028 sec

Time for model grid setup =    0.059 sec

------------------------------
INITIAL GUESS: MODEL POTENTIAL
------------------------------
Loading Hartree-Fock densities                     ... done
Calculating cut-offs                               ... done
Initializing the effective Hamiltonian             ... done
Setting up the integral package (SHARK)            ... done
Starting the Coulomb interaction                   ... done (   0.1 sec)
Reading the grid                                   ... done
Mapping shells                                     ... done
Starting the XC term evaluation                    ... done (   0.0 sec)
  promolecular density results
     # of electrons  =     33.000135068
     EX              =    -35.107981448
     EC              =     -1.150337894
     EX+EC           =    -36.258319342
Transforming the Hamiltonian                       ... done (   0.0 sec)
Diagonalizing the Hamiltonian                      ... done (   0.0 sec)
Back transforming the eigenvectors                 ... done (   0.0 sec)
Now organizing SCF variables                       ... done
                      ------------------
                      INITIAL GUESS DONE (   0.2 sec)
                      ------------------
-------------------
DFT GRID GENERATION
-------------------

General Integration Accuracy     IntAcc      ... 4.388
Radial Grid Type                 RadialGrid  ... OptM3 with GC (2021)
Angular Grid (max. ang.)         AngularGrid ... 4 (Lebedev-302)
Angular grid pruning method      GridPruning ... 4 (adaptive)
Weight generation scheme         WeightScheme... Becke
Basis function cutoff            BFCut       ... 1.0000e-11
Integration weight cutoff        WCut        ... 1.0000e-14
Angular grids for H and He will be reduced by one unit
Partially contracted basis set               ... off
Rotationally invariant grid construction     ... off

Total number of grid points                  ...    25773
Total number of batches                      ...      405
Average number of points per batch           ...       63
Average number of grid points per atom       ...     6443
Time for grid setup =    0.147 sec

--------------------
COSX GRID GENERATION
--------------------

GRIDX 1
-------
General Integration Accuracy     IntAcc      ... 3.816
Radial Grid Type                 RadialGrid  ... OptM3 with GC (2021)
Angular Grid (max. ang.)         AngularGrid ... 1 (Lebedev-50)
Angular grid pruning method      GridPruning ... 4 (adaptive)
Weight generation scheme         WeightScheme... Becke
Basis function cutoff            BFCut       ... 1.0000e-11
Integration weight cutoff        WCut        ... 1.0000e-14
Angular grids for H and He will be reduced by one unit
Partially contracted basis set               ... on
Rotationally invariant grid construction     ... off

Total number of grid points                  ...     3274
Total number of batches                      ...       53
Average number of points per batch           ...       61
Average number of grid points per atom       ...      818
UseSFitting                                  ... on

GRIDX 2
-------
General Integration Accuracy     IntAcc      ... 4.020
Radial Grid Type                 RadialGrid  ... OptM3 with GC (2021)
Angular Grid (max. ang.)         AngularGrid ... 2 (Lebedev-110)
Angular grid pruning method      GridPruning ... 4 (adaptive)
Weight generation scheme         WeightScheme... Becke
Basis function cutoff            BFCut       ... 1.0000e-11
Integration weight cutoff        WCut        ... 1.0000e-14
Angular grids for H and He will be reduced by one unit
Partially contracted basis set               ... on
Rotationally invariant grid construction     ... off

Total number of grid points                  ...     9140
Total number of batches                      ...      145
Average number of points per batch           ...       63
Average number of grid points per atom       ...     2285
UseSFitting                                  ... on

GRIDX 3
-------
General Integration Accuracy     IntAcc      ... 4.338
Radial Grid Type                 RadialGrid  ... OptM3 with GC (2021)
Angular Grid (max. ang.)         AngularGrid ... 3 (Lebedev-194)
Angular grid pruning method      GridPruning ... 4 (adaptive)
Weight generation scheme         WeightScheme... Becke
Basis function cutoff            BFCut       ... 1.0000e-11
Integration weight cutoff        WCut        ... 1.0000e-14
Angular grids for H and He will be reduced by one unit
Partially contracted basis set               ... on
Rotationally invariant grid construction     ... off

Total number of grid points                  ...    19684
Total number of batches                      ...      309
Average number of points per batch           ...       63
Average number of grid points per atom       ...     4921
UseSFitting                                  ... on

Time for X-Grid setup             =    0.397 sec

--------------
SCF ITERATIONS
--------------
ITER       Energy         Delta-E        Max-DP      RMS-DP      [F,P]     Damp
               ***  Starting incremental Fock matrix formation  ***
  0   -337.4992885034   0.000000000000 0.02041423  0.00043056  0.0732129 0.7000
  1   -337.5311470046  -0.031858501188 0.01133637  0.00028351  0.0343956 0.7000
                               ***Turning on DIIS***
  2   -337.5441961651  -0.013049160530 0.02723181  0.00052845  0.0171196 0.0000
  3   -337.5671497880  -0.022953622893 0.00685617  0.00015902  0.0152348 0.0000
  4   -337.5709253806  -0.003775592522 0.00485610  0.00007764  0.0034333 0.0000
  5   -337.5711342149  -0.000208834364 0.00285840  0.00004536  0.0019515 0.0000
  6   -337.5711963175  -0.000062102559 0.00219936  0.00004053  0.0008477 0.0000
               *** Restarting incremental Fock matrix formation ***
                                   *** Resetting DIIS ***
  7   -337.5712214105  -0.000025093050 0.00045279  0.00000720  0.0001969 0.0000
  8   -337.5712223361  -0.000000925560 0.00007307  0.00000214  0.0001078 0.0000
  9   -337.5712225652  -0.000000229085 0.00007461  0.00000174  0.0001036 0.0000
 10   -337.5712226957  -0.000000130575 0.00004945  0.00000060  0.0000129 0.0000
 11   -337.5712226987  -0.000000002907 0.00001205  0.00000014  0.0000022 0.0000
                            ***DIIS convergence achieved***

               *****************************************************
               *                     SUCCESS                       *
               *           SCF CONVERGED AFTER  12 CYCLES          *
               *****************************************************

Old exchange energy                            =    -10.545221084 Eh
New exchange energy                            =    -10.545217307 Eh
Exchange energy change after final integration =      0.000003777 Eh
Total energy after final integration           =   -337.571218923 Eh
Final COS-X integration done in                =     0.400 sec

----------------
TOTAL SCF ENERGY
----------------

Total Energy       :         -337.57121892 Eh           -9185.77986 eV

Components:
Nuclear Repulsion  :          130.72733689 Eh            3557.27169 eV
Electronic Energy  :         -468.29855582 Eh          -12743.05155 eV
One Electron Energy:         -728.45642415 Eh          -19822.30705 eV
Two Electron Energy:          260.15786834 Eh            7079.25550 eV
Max COSX asymmetry :            0.00000042 Eh               0.00001 eV

Virial components:
Potential Energy   :         -674.50447730 Eh          -18354.19994 eV
Kinetic Energy     :          336.93325838 Eh            9168.42007 eV
Virial Ratio       :            2.00189343


DFT components:
N(Alpha)           :       16.999878776534 electrons
N(Beta)            :       15.999884614871 electrons
N(Total)           :       32.999763391405 electrons
E(XC)              :      -26.228594616649 Eh       
DFET-embed. en.    :        0.000000000000 Eh       

---------------
SCF CONVERGENCE
---------------

  Last Energy change         ...   -9.2643e-10  Tolerance :   1.0000e-08
  Last MAX-Density change    ...    0.0000e+00  Tolerance :   1.0000e-07
  Last RMS-Density change    ...    0.0000e+00  Tolerance :   5.0000e-09
  Last DIIS Error            ...    8.0938e-07  Tolerance :   5.0000e-07

             **** THE GBW FILE WAS UPDATED (/beegfs/scratch/ispackman/PFAS_EPR_calcs/benchmark/JChemEd_CF3_radical/CF3_radical_96.5_degrees_IN-PROGRESS/CF3_radical_96.5_degrees.gbw) ****
             **** DENSITY /beegfs/scratch/ispackman/PFAS_EPR_calcs/benchmark/JChemEd_CF3_radical/CF3_radical_96.5_degrees_IN-PROGRESS/CF3_radical_96.5_degrees.scfp WAS UPDATED ****
             **** ENERGY FILE WAS UPDATED (/beegfs/scratch/ispackman/PFAS_EPR_calcs/benchmark/JChemEd_CF3_radical/CF3_radical_96.5_degrees_IN-PROGRESS/CF3_radical_96.5_degrees.en.tmp) ****
----------------------
UHF SPIN CONTAMINATION
----------------------

Warning: in a DFT calculation there is little theoretical justification to 
         calculate <S**2> as in Hartree-Fock theory. We will do it anyways
         but you should keep in mind that the values have only limited relevance

Expectation value of <S**2>     :     0.752263
Ideal value S*(S+1) for S=0.5   :     0.750000
Deviation                       :     0.002263

             **** THE GBW FILE WAS UPDATED (/beegfs/scratch/ispackman/PFAS_EPR_calcs/benchmark/JChemEd_CF3_radical/CF3_radical_96.5_degrees_IN-PROGRESS/CF3_radical_96.5_degrees.gbw) ****
             **** DENSITY /beegfs/scratch/ispackman/PFAS_EPR_calcs/benchmark/JChemEd_CF3_radical/CF3_radical_96.5_degrees_IN-PROGRESS/CF3_radical_96.5_degrees.scfp WAS UPDATED ****
----------------
ORBITAL ENERGIES
----------------
                 SPIN UP ORBITALS
  NO   OCC          E(Eh)            E(eV) 
   0   1.0000     -24.832025      -675.7137 
   1   1.0000     -24.832013      -675.7134 
   2   1.0000     -24.832010      -675.7133 
   3   1.0000     -10.554414      -287.2002 
   4   1.0000      -1.492460       -40.6119 
   5   1.0000      -1.358128       -36.9566 
   6   1.0000      -1.358125       -36.9565 
   7   1.0000      -0.838056       -22.8047 
   8   1.0000      -0.720154       -19.5964 
   9   1.0000      -0.720149       -19.5962 
  10   1.0000      -0.711170       -19.3519 
  11   1.0000      -0.605129       -16.4664 
  12   1.0000      -0.605121       -16.4662 
  13   1.0000      -0.531146       -14.4532 
  14   1.0000      -0.531141       -14.4531 
  15   1.0000      -0.513457       -13.9719 
  16   1.0000      -0.451662       -12.2904 
  17   0.0000       0.072429         1.9709 
  18   0.0000       0.104613         2.8467 
  19   0.0000       0.104614         2.8467 
  20   0.0000       0.111498         3.0340 
  21   0.0000       0.157405         4.2832 
  22   0.0000       0.157406         4.2832 
  23   0.0000       0.173445         4.7197 
  24   0.0000       0.173446         4.7197 
  25   0.0000       0.193673         5.2701 
  26   0.0000       0.204220         5.5571 
  27   0.0000       0.204226         5.5573 
  28   0.0000       0.241697         6.5769 
  29   0.0000       0.284269         7.7353 
  30   0.0000       0.345142         9.3918 
  31   0.0000       0.345146         9.3919 
  32   0.0000       0.355813         9.6822 
  33   0.0000       0.378972        10.3124 
  34   0.0000       0.378974        10.3124 
  35   0.0000       0.402527        10.9533 
  36   0.0000       0.402529        10.9534 
  37   0.0000       0.406303        11.0561 
  38   0.0000       0.440171        11.9777 
  39   0.0000       0.485411        13.2087 
  40   0.0000       0.485417        13.2089 
  41   0.0000       0.538233        14.6461 
  42   0.0000       0.576745        15.6940 
  43   0.0000       0.625427        17.0187 
  44   0.0000       0.625430        17.0188 
  45   0.0000       0.705347        19.1935 
  46   0.0000       0.705355        19.1937 
  47   0.0000       0.707593        19.2546 
  48   0.0000       0.728019        19.8104 
  49   0.0000       0.745534        20.2870 
  50   0.0000       0.745539        20.2872 
  51   0.0000       0.774531        21.0761 
  52   0.0000       0.793788        21.6001 
  53   0.0000       0.793788        21.6001 
  54   0.0000       0.864101        23.5134 
  55   0.0000       0.904504        24.6128 
  56   0.0000       0.904506        24.6129 
  57   0.0000       0.930539        25.3213 
  58   0.0000       0.977258        26.5925 
  59   0.0000       0.977263        26.5927 
  60   0.0000       1.081338        29.4247 
  61   0.0000       1.081339        29.4247 
  62   0.0000       1.119019        30.4501 
  63   0.0000       1.157671        31.5018 
  64   0.0000       1.157688        31.5023 
  65   0.0000       1.172310        31.9002 
  66   0.0000       1.253906        34.1205 
  67   0.0000       1.253906        34.1205 
  68   0.0000       1.256586        34.1934 
  69   0.0000       1.296551        35.2810 
  70   0.0000       1.296552        35.2810 
  71   0.0000       1.356228        36.9048 
  72   0.0000       1.471450        40.0402 
  73   0.0000       1.471467        40.0406 
  74   0.0000       1.644427        44.7471 
  75   0.0000       2.119606        57.6774 
  76   0.0000       2.161992        58.8308 
  77   0.0000       2.162013        58.8314 
  78   0.0000       2.203351        59.9562 
  79   0.0000       2.209520        60.1241 
  80   0.0000       2.209545        60.1248 
  81   0.0000       2.211581        60.1802 
  82   0.0000       2.336285        63.5735 
  83   0.0000       2.336302        63.5740 
  84   0.0000       2.466497        67.1168 
  85   0.0000       2.466503        67.1170 
  86   0.0000       2.473425        67.3053 
  87   0.0000       2.603437        70.8431 
  88   0.0000       2.603440        70.8432 
  89   0.0000       2.891371        78.6782 
  90   0.0000       2.927203        79.6532 
  91   0.0000       2.927229        79.6540 
  92   0.0000       2.983544        81.1864 
  93   0.0000       3.024588        82.3032 
  94   0.0000       3.174029        86.3697 
  95   0.0000       3.174105        86.3718 
  96   0.0000       3.193029        86.8867 
  97   0.0000       3.290828        89.5480 
  98   0.0000       3.290900        89.5499 
  99   0.0000       3.403439        92.6123 
 100   0.0000       3.403453        92.6127 
 101   0.0000       3.439989        93.6069 
 102   0.0000       3.650540        99.3362 
 103   0.0000       3.650561        99.3368 
 104   0.0000       3.661313        99.6294 
 105   0.0000       3.808189       103.6261 
 106   0.0000       3.938633       107.1757 
 107   0.0000       3.938673       107.1767 
 108   0.0000       3.962729       107.8313 
 109   0.0000       4.112496       111.9067 
 110   0.0000       4.112517       111.9073 
 111   0.0000       4.231046       115.1326 
 112   0.0000       4.337950       118.0416 
 113   0.0000       4.337986       118.0426 
 114   0.0000       5.403098       147.0258 
 115   0.0000       5.403124       147.0265 
 116   0.0000       5.572691       151.6406 
 117   0.0000       6.913683       188.1309 
 118   0.0000       6.913703       188.1314 
 119   0.0000       6.920418       188.3141 
 120   0.0000       6.933988       188.6834 
 121   0.0000       6.933991       188.6835 
 122   0.0000       6.936017       188.7386 
 123   0.0000       6.941585       188.8901 
 124   0.0000       6.941613       188.8909 
 125   0.0000       6.967933       189.6071 
 126   0.0000       7.057276       192.0382 
 127   0.0000       7.057334       192.0398 
 128   0.0000       7.179889       195.3747 
 129   0.0000       7.245399       197.1573 
 130   0.0000       7.245408       197.1576 
 131   0.0000       7.269733       197.8195 
 132   0.0000       7.438419       202.4097 
 133   0.0000       7.512434       204.4237 
 134   0.0000       7.639773       207.8888 
 135   0.0000       7.639810       207.8898 
 136   0.0000       7.786435       211.8797 
 137   0.0000       7.786492       211.8812 
 138   0.0000       8.531901       232.1648 
 139   0.0000       8.531907       232.1650 
 140   0.0000       8.572327       233.2649 
 141   0.0000       8.599261       233.9978 
 142   0.0000       8.618231       234.5140 
 143   0.0000       8.618239       234.5142 
 144   0.0000       8.861892       241.1443 
 145   0.0000       8.862568       241.1627 
 146   0.0000       8.862582       241.1631 
 147   0.0000       9.074363       246.9260 
 148   0.0000       9.096066       247.5165 
 149   0.0000       9.096120       247.5180 
 150   0.0000       9.282231       252.5823 
 151   0.0000       9.394226       255.6299 
 152   0.0000       9.394237       255.6302 
 153   0.0000      22.640701       616.0848 
 154   0.0000      57.405468      1562.0822 
 155   0.0000      57.405482      1562.0826 
 156   0.0000      57.527075      1565.3913 

                 SPIN DOWN ORBITALS
  NO   OCC          E(Eh)            E(eV) 
   0   1.0000     -24.829249      -675.6382 
   1   1.0000     -24.829238      -675.6379 
   2   1.0000     -24.829228      -675.6376 
   3   1.0000     -10.541470      -286.8480 
   4   1.0000      -1.483942       -40.3801 
   5   1.0000      -1.349545       -36.7230 
   6   1.0000      -1.349540       -36.7228 
   7   1.0000      -0.819727       -22.3059 
   8   1.0000      -0.709803       -19.3147 
   9   1.0000      -0.709801       -19.3147 
  10   1.0000      -0.669496       -18.2179 
  11   1.0000      -0.593333       -16.1454 
  12   1.0000      -0.593324       -16.1452 
  13   1.0000      -0.523823       -14.2540 
  14   1.0000      -0.523818       -14.2538 
  15   1.0000      -0.510172       -13.8825 
  16   0.0000      -0.100514        -2.7351 
  17   0.0000       0.082809         2.2533 
  18   0.0000       0.108307         2.9472 
  19   0.0000       0.108308         2.9472 
  20   0.0000       0.125410         3.4126 
  21   0.0000       0.163999         4.4627 
  22   0.0000       0.164000         4.4627 
  23   0.0000       0.178296         4.8517 
  24   0.0000       0.178297         4.8517 
  25   0.0000       0.203911         5.5487 
  26   0.0000       0.226851         6.1729 
  27   0.0000       0.226853         6.1730 
  28   0.0000       0.242207         6.5908 
  29   0.0000       0.290049         7.8926 
  30   0.0000       0.364314         9.9135 
  31   0.0000       0.364317         9.9136 
  32   0.0000       0.368579        10.0295 
  33   0.0000       0.380297        10.3484 
  34   0.0000       0.380298        10.3484 
  35   0.0000       0.405022        11.0212 
  36   0.0000       0.405023        11.0212 
  37   0.0000       0.412984        11.2379 
  38   0.0000       0.450173        12.2498 
  39   0.0000       0.487240        13.2585 
  40   0.0000       0.487245        13.2586 
  41   0.0000       0.540421        14.7056 
  42   0.0000       0.585884        15.9427 
  43   0.0000       0.627155        17.0658 
  44   0.0000       0.627161        17.0659 
  45   0.0000       0.706536        19.2258 
  46   0.0000       0.706542        19.2260 
  47   0.0000       0.707800        19.2602 
  48   0.0000       0.737419        20.0662 
  49   0.0000       0.748000        20.3541 
  50   0.0000       0.748009        20.3544 
  51   0.0000       0.773726        21.0542 
  52   0.0000       0.795913        21.6579 
  53   0.0000       0.795915        21.6579 
  54   0.0000       0.865055        23.5393 
  55   0.0000       0.906742        24.6737 
  56   0.0000       0.906743        24.6737 
  57   0.0000       0.945621        25.7317 
  58   0.0000       0.984549        26.7909 
  59   0.0000       0.984556        26.7911 
  60   0.0000       1.084421        29.5086 
  61   0.0000       1.084422        29.5086 
  62   0.0000       1.124522        30.5998 
  63   0.0000       1.160078        31.5673 
  64   0.0000       1.160096        31.5678 
  65   0.0000       1.185084        32.2478 
  66   0.0000       1.257686        34.2234 
  67   0.0000       1.264850        34.4183 
  68   0.0000       1.264854        34.4184 
  69   0.0000       1.303359        35.4662 
  70   0.0000       1.303376        35.4667 
  71   0.0000       1.356626        36.9157 
  72   0.0000       1.473076        40.0844 
  73   0.0000       1.473098        40.0850 
  74   0.0000       1.699592        46.2482 
  75   0.0000       2.128930        57.9311 
  76   0.0000       2.171318        59.0846 
  77   0.0000       2.171349        59.0854 
  78   0.0000       2.206935        60.0538 
  79   0.0000       2.218850        60.3780 
  80   0.0000       2.218880        60.3788 
  81   0.0000       2.221032        60.4374 
  82   0.0000       2.340667        63.6928 
  83   0.0000       2.340685        63.6933 
  84   0.0000       2.472067        67.2684 
  85   0.0000       2.472068        67.2684 
  86   0.0000       2.474889        67.3452 
  87   0.0000       2.629924        71.5639 
  88   0.0000       2.629932        71.5641 
  89   0.0000       2.899530        78.9002 
  90   0.0000       2.932052        79.7852 
  91   0.0000       2.932082        79.7860 
  92   0.0000       2.987422        81.2919 
  93   0.0000       3.041808        82.7718 
  94   0.0000       3.188446        86.7620 
  95   0.0000       3.188472        86.7627 
  96   0.0000       3.246294        88.3361 
  97   0.0000       3.318359        90.2971 
  98   0.0000       3.318398        90.2982 
  99   0.0000       3.449198        93.8574 
 100   0.0000       3.449199        93.8575 
 101   0.0000       3.450623        93.8962 
 102   0.0000       3.666078        99.7591 
 103   0.0000       3.666114        99.7600 
 104   0.0000       3.698454       100.6401 
 105   0.0000       3.815818       103.8337 
 106   0.0000       3.968492       107.9882 
 107   0.0000       3.968531       107.9892 
 108   0.0000       3.969053       108.0034 
 109   0.0000       4.121931       112.1635 
 110   0.0000       4.121941       112.1637 
 111   0.0000       4.244795       115.5067 
 112   0.0000       4.349443       118.3544 
 113   0.0000       4.349495       118.3558 
 114   0.0000       5.412034       147.2689 
 115   0.0000       5.412066       147.2698 
 116   0.0000       5.584964       151.9746 
 117   0.0000       6.919470       188.2883 
 118   0.0000       6.919487       188.2888 
 119   0.0000       6.926131       188.4696 
 120   0.0000       6.936680       188.7567 
 121   0.0000       6.936683       188.7567 
 122   0.0000       6.941399       188.8851 
 123   0.0000       6.947344       189.0468 
 124   0.0000       6.947366       189.0474 
 125   0.0000       6.969733       189.6561 
 126   0.0000       7.062315       192.1754 
 127   0.0000       7.062373       192.1769 
 128   0.0000       7.184746       195.5069 
 129   0.0000       7.253664       197.3822 
 130   0.0000       7.253666       197.3823 
 131   0.0000       7.276143       197.9939 
 132   0.0000       7.446233       202.6223 
 133   0.0000       7.521316       204.6654 
 134   0.0000       7.646272       208.0656 
 135   0.0000       7.646314       208.0668 
 136   0.0000       7.794687       212.1042 
 137   0.0000       7.794746       212.1058 
 138   0.0000       8.539385       232.3685 
 139   0.0000       8.539392       232.3687 
 140   0.0000       8.582710       233.5474 
 141   0.0000       8.608098       234.2383 
 142   0.0000       8.627527       234.7669 
 143   0.0000       8.627534       234.7671 
 144   0.0000       8.865698       241.2479 
 145   0.0000       8.872547       241.4343 
 146   0.0000       8.872565       241.4348 
 147   0.0000       9.083058       247.1626 
 148   0.0000       9.100348       247.6331 
 149   0.0000       9.100394       247.6343 
 150   0.0000       9.287403       252.7231 
 151   0.0000       9.401139       255.8180 
 152   0.0000       9.401150       255.8183 
 153   0.0000      22.664028       616.7196 
 154   0.0000      57.408215      1562.1570 
 155   0.0000      57.408230      1562.1574 
 156   0.0000      57.529850      1565.4668 

                    ********************************
                    * MULLIKEN POPULATION ANALYSIS *
                    ********************************

--------------------------------------------
MULLIKEN ATOMIC CHARGES AND SPIN POPULATIONS
--------------------------------------------
   0 C :    0.575307    0.775923
   1 F :   -0.191634    0.074735
   2 F :   -0.191836    0.074671
   3 F :   -0.191837    0.074671
Sum of atomic charges         :   -0.0000000
Sum of atomic spin populations:    1.0000000

-----------------------------------------------------
MULLIKEN REDUCED ORBITAL CHARGES AND SPIN POPULATIONS
-----------------------------------------------------
CHARGE
  0 C s       :     3.179710  s :     3.179710
      pz      :     0.812936  p :     1.915969
      px      :     0.551521
      py      :     0.551512
      dz2     :     0.063765  d :     0.284555
      dxz     :     0.045424
      dyz     :     0.045422
      dx2y2   :     0.064968
      dxy     :     0.064976
      f0      :     0.001683  f :     0.044459
      f+1     :     0.007254
      f-1     :     0.007253
      f+2     :     0.007943
      f-2     :     0.007948
      f+3     :     0.003589
      f-3     :     0.008790
  1 F s       :     3.953763  s :     3.953763
      pz      :     1.695474  p :     5.228997
      px      :     1.602726
      py      :     1.930797
      dz2     :     0.000722  d :     0.008001
      dxz     :     0.005228
      dyz     :     0.002034
      dx2y2   :     0.003838
      dxy     :    -0.003821
      f0      :     0.000085  f :     0.000873
      f+1     :     0.000194
      f-1     :     0.000009
      f+2     :     0.000231
      f-2     :     0.000087
      f+3     :     0.000137
      f-3     :     0.000131
  2 F s       :     3.953853  s :     3.953853
      pz      :     1.695455  p :     5.229123
      px      :     1.848828
      py      :     1.684839
      dz2     :     0.000720  d :     0.007987
      dxz     :     0.002831
      dyz     :     0.004426
      dx2y2   :    -0.001906
      dxy     :     0.001916
      f0      :     0.000085  f :     0.000873
      f+1     :     0.000055
      f-1     :     0.000148
      f+2     :     0.000123
      f-2     :     0.000195
      f+3     :     0.000137
      f-3     :     0.000131
  3 F s       :     3.953853  s :     3.953853
      pz      :     1.695455  p :     5.229123
      px      :     1.848829
      py      :     1.684840
      dz2     :     0.000720  d :     0.007987
      dxz     :     0.002831
      dyz     :     0.004426
      dx2y2   :    -0.001905
      dxy     :     0.001916
      f0      :     0.000085  f :     0.000873
      f+1     :     0.000055
      f-1     :     0.000148
      f+2     :     0.000123
      f-2     :     0.000195
      f+3     :     0.000137
      f-3     :     0.000131

SPIN
  0 C s       :     0.280535  s :     0.280535
      pz      :     0.459846  p :     0.487110
      px      :     0.013616
      py      :     0.013648
      dz2     :     0.013547  d :     0.008973
      dxz     :    -0.001388
      dyz     :    -0.001386
      dx2y2   :    -0.000901
      dxy     :    -0.000899
      f0      :     0.000019  f :    -0.000696
      f+1     :    -0.000276
      f-1     :    -0.000275
      f+2     :    -0.000222
      f-2     :    -0.000223
      f+3     :     0.000246
      f-3     :     0.000037
  1 F s       :     0.003032  s :     0.003032
      pz      :     0.074490  p :     0.070141
      px      :    -0.003101
      py      :    -0.001248
      dz2     :    -0.000257  d :     0.001534
      dxz     :     0.001149
      dyz     :    -0.000021
      dx2y2   :     0.000778
      dxy     :    -0.000116
      f0      :     0.000005  f :     0.000028
      f+1     :     0.000011
      f-1     :     0.000002
      f+2     :     0.000004
      f-2     :     0.000001
      f+3     :     0.000007
      f-3     :    -0.000001
  2 F s       :     0.003016  s :     0.003016
      pz      :     0.074452  p :     0.070091
      px      :    -0.001714
      py      :    -0.002647
      dz2     :    -0.000257  d :     0.001537
      dxz     :     0.000272
      dyz     :     0.000856
      dx2y2   :     0.000108
      dxy     :     0.000558
      f0      :     0.000005  f :     0.000028
      f+1     :     0.000004
      f-1     :     0.000008
      f+2     :     0.000001
      f-2     :     0.000003
      f+3     :     0.000007
      f-3     :    -0.000001
  3 F s       :     0.003016  s :     0.003016
      pz      :     0.074452  p :     0.070091
      px      :    -0.001714
      py      :    -0.002647
      dz2     :    -0.000257  d :     0.001537
      dxz     :     0.000272
      dyz     :     0.000856
      dx2y2   :     0.000108
      dxy     :     0.000558
      f0      :     0.000005  f :     0.000028
      f+1     :     0.000004
      f-1     :     0.000008
      f+2     :     0.000001
      f-2     :     0.000003
      f+3     :     0.000007
      f-3     :    -0.000001


                     *******************************
                     * LOEWDIN POPULATION ANALYSIS *
                     *******************************

-------------------------------------------
LOEWDIN ATOMIC CHARGES AND SPIN POPULATIONS
-------------------------------------------
   0 C :   -0.315316    0.628324
   1 F :    0.105114    0.123904
   2 F :    0.105101    0.123886
   3 F :    0.105101    0.123886

----------------------------------------------------
LOEWDIN REDUCED ORBITAL CHARGES AND SPIN POPULATIONS
----------------------------------------------------
CHARGE
  0 C s       :     2.716045  s :     2.716045
      pz      :     0.802678  p :     2.151939
      px      :     0.674622
      py      :     0.674639
      dz2     :     0.171292  d :     1.161371
      dxz     :     0.218466
      dyz     :     0.218468
      dx2y2   :     0.276571
      dxy     :     0.276575
      f0      :     0.017118  f :     0.285960
      f+1     :     0.036500
      f-1     :     0.036498
      f+2     :     0.058484
      f-2     :     0.058489
      f+3     :     0.031577
      f-3     :     0.047295
  1 F s       :     3.546921  s :     3.546921
      pz      :     1.649561  p :     5.094120
      px      :     1.654667
      py      :     1.789893
      dz2     :     0.044726  d :     0.251763
      dxz     :     0.068572
      dyz     :     0.014105
      dx2y2   :     0.044056
      dxy     :     0.080304
      f0      :     0.000175  f :     0.002082
      f+1     :     0.000556
      f-1     :     0.000004
      f+2     :     0.000494
      f-2     :     0.000208
      f+3     :     0.000286
      f-3     :     0.000360
  2 F s       :     3.546924  s :     3.546924
      pz      :     1.649566  p :     5.094135
      px      :     1.756092
      py      :     1.688477
      dz2     :     0.044725  d :     0.251757
      dxz     :     0.027721
      dyz     :     0.054954
      dx2y2   :     0.071241
      dxy     :     0.053117
      f0      :     0.000175  f :     0.002082
      f+1     :     0.000142
      f-1     :     0.000418
      f+2     :     0.000279
      f-2     :     0.000422
      f+3     :     0.000287
      f-3     :     0.000360
  3 F s       :     3.546924  s :     3.546924
      pz      :     1.649566  p :     5.094135
      px      :     1.756092
      py      :     1.688477
      dz2     :     0.044725  d :     0.251757
      dxz     :     0.027721
      dyz     :     0.054954
      dx2y2   :     0.071241
      dxy     :     0.053117
      f0      :     0.000175  f :     0.002082
      f+1     :     0.000142
      f-1     :     0.000418
      f+2     :     0.000279
      f-2     :     0.000422
      f+3     :     0.000287
      f-3     :     0.000360

SPIN
  0 C s       :     0.165037  s :     0.165037
      pz      :     0.395897  p :     0.408099
      px      :     0.006096
      py      :     0.006107
      dz2     :     0.055364  d :     0.046905
      dxz     :    -0.003572
      dyz     :    -0.003572
      dx2y2   :    -0.000658
      dxy     :    -0.000656
      f0      :     0.002432  f :     0.008283
      f+1     :    -0.000231
      f-1     :    -0.000230
      f+2     :    -0.000172
      f-2     :    -0.000174
      f+3     :     0.006655
      f-3     :     0.000003
  1 F s       :     0.014580  s :     0.014580
      pz      :     0.076959  p :     0.082059
      px      :     0.005705
      py      :    -0.000605
      dz2     :     0.011968  d :     0.026963
      dxz     :     0.014233
      dyz     :    -0.000230
      dx2y2   :     0.001005
      dxy     :    -0.000013
      f0      :     0.000010  f :     0.000302
      f+1     :     0.000239
      f-1     :     0.000001
      f+2     :     0.000017
      f-2     :     0.000001
      f+3     :     0.000032
      f-3     :     0.000002
  2 F s       :     0.014579  s :     0.014579
      pz      :     0.076935  p :     0.082041
      px      :     0.000973
      py      :     0.004134
      dz2     :     0.011968  d :     0.026964
      dxz     :     0.003386
      dyz     :     0.010618
      dx2y2   :     0.000242
      dxy     :     0.000751
      f0      :     0.000010  f :     0.000302
      f+1     :     0.000060
      f-1     :     0.000179
      f+2     :     0.000005
      f-2     :     0.000013
      f+3     :     0.000032
      f-3     :     0.000002
  3 F s       :     0.014579  s :     0.014579
      pz      :     0.076935  p :     0.082041
      px      :     0.000973
      py      :     0.004133
      dz2     :     0.011968  d :     0.026964
      dxz     :     0.003386
      dyz     :     0.010618
      dx2y2   :     0.000242
      dxy     :     0.000751
      f0      :     0.000010  f :     0.000302
      f+1     :     0.000060
      f-1     :     0.000179
      f+2     :     0.000005
      f-2     :     0.000013
      f+3     :     0.000032
      f-3     :     0.000002


                      *****************************
                      * MAYER POPULATION ANALYSIS *
                      *****************************

  NA   - Mulliken gross atomic population
  ZA   - Total nuclear charge
  QA   - Mulliken gross atomic charge
  VA   - Mayer's total valence
  BVA  - Mayer's bonded valence
  FA   - Mayer's free valence

  ATOM       NA         ZA         QA         VA         BVA        FA
  0 C      5.4247     6.0000     0.5753     3.7942     3.1845     0.6097
  1 F      9.1916     9.0000    -0.1916     1.0047     1.0001     0.0045
  2 F      9.1918     9.0000    -0.1918     1.0043     0.9998     0.0045
  3 F      9.1918     9.0000    -0.1918     1.0043     0.9998     0.0045

  Mayer bond orders larger than 0.100000
B(  0-C ,  1-F ) :   1.0617 B(  0-C ,  2-F ) :   1.0614 B(  0-C ,  3-F ) :   1.0614 


-------
TIMINGS
-------

Total SCF time: 0 days 0 hours 0 min 11 sec 

Total time                  ....      11.303 sec
Sum of individual times     ....      10.446 sec  ( 92.4%)

Fock matrix formation       ....       8.775 sec  ( 77.6%)
  Split-RI-J                ....       1.098 sec  ( 12.5% of F)
  Chain of spheres X        ....       2.982 sec  ( 34.0% of F)
  XC integration            ....       1.878 sec  ( 21.4% of F)
    Basis function eval.    ....       0.111 sec  (  5.9% of XC)
    Density eval.           ....       0.148 sec  (  7.9% of XC)
    XC-Functional eval.     ....       0.062 sec  (  3.3% of XC)
    XC-Potential eval.      ....       0.301 sec  ( 16.0% of XC)
Diagonalization             ....       0.346 sec  (  3.1%)
Density matrix formation    ....       0.013 sec  (  0.1%)
Population analysis         ....       0.132 sec  (  1.2%)
Initial guess               ....       0.132 sec  (  1.2%)
Orbital Transformation      ....       0.000 sec  (  0.0%)
Orbital Orthonormalization  ....       0.000 sec  (  0.0%)
DIIS solution               ....       0.444 sec  (  3.9%)
Grid generation             ....       0.603 sec  (  5.3%)

Maximum memory used throughout the entire SCF-calculation: 63.2 MB


-------------------------------------------------------------------------------
                          DFT DISPERSION CORRECTION                            
                                                                               
                              DFTD3 V3.1  Rev 1                                
                              USING zero damping                               
-------------------------------------------------------------------------------
The omegaB97X-D3 functional is recognized. Fit by Chai et al.
Active option DFTDOPT                   ...         3   

molecular C6(AA) [au] = 165.471805 


            DFT-D V3
 parameters
 s6 scaling factor         :     1.0000 
 rs6 scaling factor        :     1.2810 
 s8 scaling factor         :     1.0000 
 rs8 scaling factor        :     1.0940 
 Damping factor alpha6     :    14.0000 
 Damping factor alpha8     :    16.0000 
 ad hoc parameters k1-k3   :    16.0000     1.3333    -4.0000 

 Edisp/kcal,au: -0.023615447339  -0.000037633607 
 E6   /kcal   :  -0.002989571 
 E8   /kcal   :  -0.020625876 
 % E8         :  87.340612260 

-------------------------   ----------------
Dispersion correction           -0.000037634
-------------------------   ----------------


-------------------------   --------------------
FINAL SINGLE POINT ENERGY      -337.571256556289
-------------------------   --------------------



           ************************************************************
           *        Program running with 18 parallel MPI-processes    *
           *              working on a common directory               *
           ************************************************************
------------------------------------------------------------------------------
                         ORCA SCF GRADIENT CALCULATION
------------------------------------------------------------------------------

 ... reading COSX grid (gridx3)
Gradient of the Kohn-Sham DFT energy:
Kohn-Sham wavefunction type      ... UKS
Hartree-Fock exchange scaling    ...    0.196
Number of operators              ...    2
Number of atoms                  ...    4
Basis set dimensions             ...  157
Integral neglect threshold       ... 2.5e-11
Integral primitive cutoff        ... 2.5e-12
SHARK Integral package           ... ON

Nuc. rep. gradient       (SHARK) ... done (  0.0 sec)
HCore & Overlap gradient (SHARK) ... done (  0.0 sec)
RI-J gradient            (SHARK) ... done (  0.2 sec)
COSX-gradient                    ... done (  0.5 sec)
Exchange-correlation gradient    ... done
Dispersion correction            ... done

------------------
CARTESIAN GRADIENT
------------------

WARNING: THERE ARE 3 CONSTRAINED CARTESIAN COORDINATES
   1   C   :   -0.000296793    0.000000088    0.136196392
   2   F   :   -0.088206859    0.000000128   -0.045462573
   3   F   :    0.044319987   -0.076476606   -0.045553576
   4   F   :    0.044319861    0.076476483   -0.045553595

Difference to translation invariance:
           :    0.0001361966    0.0000000940   -0.0003733531

Difference to rotation invariance:
           :    0.0000000434   -0.0007412188    0.0000001716

Norm of the cartesian gradient     ...    0.2194833347
RMS gradient                       ...    0.0633593812
MAX gradient                       ...    0.1361963918

-------
TIMINGS
-------

Total SCF gradient time            ...        1.216 sec

One electron gradient       ....       0.013 sec  (  1.1%)
RI-J Coulomb gradient       ....       0.165 sec  ( 13.5%)
COSX gradient               ....       0.487 sec  ( 40.0%)
XC gradient                 ....       0.182 sec  ( 15.0%)

Maximum memory used throughout the entire SCFGRAD-calculation: 37.3 MB
------------------------------------------------------------------------------
                         ORCA GEOMETRY RELAXATION STEP
------------------------------------------------------------------------------

Reading the OPT-File                    .... done
Getting information on internals        .... done
Copying old internal coords+grads       .... done
Making the new internal coordinates     .... (new redundants).... done
Validating the new internal coordinates .... (new redundants).... done
Calculating the B-matrix                .... done
Calculating the G,G- and P matrices     .... done
Transforming gradient to internals      .... done
Projecting the internal gradient        .... done
Number of atoms                         ....   4
Number of internal coordinates          ....   7
Current Energy                          ....  -337.571256556 Eh
Current gradient norm                   ....     0.219483335 Eh/bohr
Maximum allowed component of the step   ....  0.300
Current trust radius                    ....  0.300
Evaluating the initial hessian          ....  (Almloef) done
Projecting the Hessian                  .... done
Forming the augmented Hessian           .... done
Diagonalizing the augmented Hessian     .... done
Last element of RFO vector              ....  0.991430366
Lowest eigenvalues of augmented Hessian:
 -0.012101352  0.684895726  0.684895726  0.696997078 1000.000000000
Length of the computed step             ....  0.131765427
The final length of the internal step   ....  0.131765427
Converting the step to cartesian space:
 Initial RMS(Int)=    0.0498026500
Transforming coordinates:
 Iter   0:  RMS(Cart)=    0.0341617631 RMS(Int)=    0.0498026503
 Iter   1:  RMS(Cart)=    0.0000000006 RMS(Int)=    0.0000000011
Imposing constraints:
 Iter   0:  RMS(Cart)=    0.0000000007 RMS(Int)=    0.0000000009
CONVERGED
done
Storing new coordinates                 .... done

                                .--------------------.
          ----------------------|Geometry convergence|-------------------------
          Item                value                   Tolerance       Converged
          ---------------------------------------------------------------------
          RMS gradient        0.0347123016            0.0001000000      NO
          MAX gradient        0.0530775872            0.0003000000      NO
          RMS step            0.0498026500            0.0020000000      NO
          MAX step            0.0761518073            0.0040000000      NO
          ........................................................
          Max(Bonds)      0.0403      Max(Angles)    0.00
          Max(Dihed)        0.00      Max(Improp)    0.00
          ---------------------------------------------------------------------

The optimization has not yet converged - more geometry cycles are needed


    ---------------------------------------------------------------------------
                         Redundant Internal Coordinates
                            (Angstroem and degrees)

        Definition                    Value    dE/dq     Step     New-Value
    ----------------------------------------------------------------------------
     1. B(F   1,C   0)                1.3150 -0.052917  0.0402    1.3552   
     2. B(F   2,C   0)                1.3150 -0.053078  0.0403    1.3553   
     3. B(F   3,C   0)                1.3150 -0.053077  0.0403    1.3553   
     4. A(F   2,C   0,F   3)           96.50 -0.146390   -0.00     96.50 C 
     5. A(F   1,C   0,F   2)           96.50 -0.068678    0.00     96.50 C 
     6. A(F   1,C   0,F   3)           96.50 -0.068678   -0.00     96.50 C 
     7. I(F   1,F   3,F   2,C   0)     80.21  0.118137    0.00     80.21   
    ----------------------------------------------------------------------------

         *************************************************************
         *                GEOMETRY OPTIMIZATION CYCLE   2            *
         *************************************************************
---------------------------------
CARTESIAN COORDINATES (ANGSTROEM)
---------------------------------
  C      0.000038   -0.000000    0.015332
  F      1.167469   -0.000000   -0.672858
  F     -0.583754    1.011130   -0.672880
  F     -0.583754   -1.011130   -0.672880

----------------------------
CARTESIAN COORDINATES (A.U.)
----------------------------
  NO LB      ZA    FRAG     MASS         X           Y           Z
   0 C     6.0000    0    12.011    0.000072   -0.000000    0.028973
   1 F     9.0000    0    18.998    2.206197   -0.000000   -1.271516
   2 F     9.0000    0    18.998   -1.103135    1.910759   -1.271559
   3 F     9.0000    0    18.998   -1.103135   -1.910758   -1.271559

--------------------------------
INTERNAL COORDINATES (ANGSTROEM)
--------------------------------
 C      0   0   0     0.000000000000     0.00000000     0.00000000
 F      1   0   0     1.355175583385     0.00000000     0.00000000
 F      1   2   0     1.355297800784    96.50000004     0.00000000
 F      1   2   3     1.355297650288    96.50000004    97.33405070

---------------------------
INTERNAL COORDINATES (A.U.)
---------------------------
 C      0   0   0     0.000000000000     0.00000000     0.00000000
 F      1   0   0     2.560910715974     0.00000000     0.00000000
 F      1   2   0     2.561141673387    96.50000004     0.00000000
 F      1   2   3     2.561141388992    96.50000004    97.33405070



           ************************************************************
           *        Program running with 18 parallel MPI-processes    *
           *              working on a common directory               *
           ************************************************************
------------------------------------------------------------------------------
                   ___                                                        
                  /   \      - P O W E R E D   B Y -                         
                 /     \                                                     
                 |  |  |   _    _      __       _____    __    __             
                 |  |  |  | |  | |    /  \     |  _  \  |  |  /  |          
                  \  \/   | |  | |   /    \    | | | |  |  | /  /          
                 / \  \   | |__| |  /  /\  \   | |_| |  |  |/  /          
                |  |  |   |  __  | /  /__\  \  |    /   |      \           
                |  |  |   | |  | | |   __   |  |    \   |  |\   \          
                \     /   | |  | | |  |  |  |  | |\  \  |  | \   \       
                 \___/    |_|  |_| |__|  |__|  |_| \__\ |__|  \__/        
                                                                              
                      - O R C A' S   B I G   F R I E N D -                    
                                      &                                       
                       - I N T E G R A L  F E E D E R -                       
                                                                              
 v1 FN, 2020, v2 2021                                                         
------------------------------------------------------------------------------


Reading SHARK input file /beegfs/scratch/ispackman/PFAS_EPR_calcs/benchmark/JChemEd_CF3_radical/CF3_radical_96.5_degrees_IN-PROGRESS/CF3_radical_96.5_degrees.SHARKINP.tmp ... ok
----------------------
SHARK INTEGRAL PACKAGE
----------------------

Number of atoms                             ...      4
Number of basis functions                   ...    157
Number of shells                            ...     55
Maximum angular momentum                    ...      3
Integral batch strategy                     ... SHARK/LIBINT Hybrid
RI-J (if used) integral strategy            ... SPLIT-RIJ (Revised 2003 algorithm where possible)
Printlevel                                  ...      1
Contraction scheme used                     ... SEGMENTED contraction
Coulomb Range Separation                    ... NOT USED
Exchange Range Separation                   ... Long Range
   Mu parameter                             ...  0.250000
   Scaling (regular/separated)              ...  0.195728  0.804272
Finite Nucleus Model                        ... NOT USED
Auxiliary Coulomb fitting basis             ... AVAILABLE
   # of basis functions in Aux-J            ...    196
   # of shells in Aux-J                     ...     60
   Maximum angular momentum in Aux-J        ...      4
Auxiliary J/K fitting basis                 ... NOT available
Auxiliary Correlation fitting basis         ... NOT available
Auxiliary 'external' fitting basis          ... NOT available
Integral threshold                          ...     2.500000e-11
Primitive cut-off                           ...     2.500000e-12
Primitive pair pre-selection threshold      ...     2.500000e-12

Calculating pre-screening integrals         ... done (  0.0 sec) Dimension = 55
Organizing shell pair data                  ... done (  0.0 sec)
Shell pair information
Total number of shell pairs                 ...      1540
Shell pairs after pre-screening             ...      1510
Total number of primitive shell pairs       ...      4274
Primitive shell pairs kept                  ...      3575
          la=0 lb=0:    282 shell pairs
          la=1 lb=0:    360 shell pairs
          la=1 lb=1:    120 shell pairs
          la=2 lb=0:    276 shell pairs
          la=2 lb=1:    180 shell pairs
          la=2 lb=2:     78 shell pairs
          la=3 lb=0:     96 shell pairs
          la=3 lb=1:     60 shell pairs
          la=3 lb=2:     48 shell pairs
          la=3 lb=3:     10 shell pairs

Calculating one electron integrals          ... done (  0.0 sec)
Calculating RI/J V-Matrix + Cholesky decomp.... done (  0.1 sec)
Calculating Nuclear repulsion               ... done (  0.0 sec) ENN=    126.844168053208 Eh

SHARK setup successfully completed in   0.3 seconds

Maximum memory used throughout the entire GTOINT-calculation: 15.2 MB


           ************************************************************
           *        Program running with 18 parallel MPI-processes    *
           *              working on a common directory               *
           ************************************************************

Diagonalization of the overlap matrix:
Smallest eigenvalue                        ... 3.966e-04
Time for diagonalization                   ...    0.008 sec
Threshold for overlap eigenvalues          ... 1.000e-08
Number of eigenvalues below threshold      ... 0
Time for construction of square roots      ...    0.035 sec
Total time needed                          ...    0.044 sec

-------------------
DFT GRID GENERATION
-------------------

General Integration Accuracy     IntAcc      ... 4.388
Radial Grid Type                 RadialGrid  ... OptM3 with GC (2021)
Angular Grid (max. ang.)         AngularGrid ... 4 (Lebedev-302)
Angular grid pruning method      GridPruning ... 4 (adaptive)
Weight generation scheme         WeightScheme... Becke
Basis function cutoff            BFCut       ... 1.0000e-11
Integration weight cutoff        WCut        ... 1.0000e-14
Angular grids for H and He will be reduced by one unit
Partially contracted basis set               ... off
Rotationally invariant grid construction     ... off

Total number of grid points                  ...    25782
Total number of batches                      ...      405
Average number of points per batch           ...       63
Average number of grid points per atom       ...     6446
Time for grid setup =    0.150 sec

--------------------
COSX GRID GENERATION
--------------------

GRIDX 1
-------
General Integration Accuracy     IntAcc      ... 3.816
Radial Grid Type                 RadialGrid  ... OptM3 with GC (2021)
Angular Grid (max. ang.)         AngularGrid ... 1 (Lebedev-50)
Angular grid pruning method      GridPruning ... 4 (adaptive)
Weight generation scheme         WeightScheme... Becke
Basis function cutoff            BFCut       ... 1.0000e-11
Integration weight cutoff        WCut        ... 1.0000e-14
Angular grids for H and He will be reduced by one unit
Partially contracted basis set               ... on
Rotationally invariant grid construction     ... off

Total number of grid points                  ...     3274
Total number of batches                      ...       53
Average number of points per batch           ...       61
Average number of grid points per atom       ...      818
UseSFitting                                  ... on

GRIDX 2
-------
General Integration Accuracy     IntAcc      ... 4.020
Radial Grid Type                 RadialGrid  ... OptM3 with GC (2021)
Angular Grid (max. ang.)         AngularGrid ... 2 (Lebedev-110)
Angular grid pruning method      GridPruning ... 4 (adaptive)
Weight generation scheme         WeightScheme... Becke
Basis function cutoff            BFCut       ... 1.0000e-11
Integration weight cutoff        WCut        ... 1.0000e-14
Angular grids for H and He will be reduced by one unit
Partially contracted basis set               ... on
Rotationally invariant grid construction     ... off

Total number of grid points                  ...     9143
Total number of batches                      ...      144
Average number of points per batch           ...       63
Average number of grid points per atom       ...     2286
UseSFitting                                  ... on

GRIDX 3
-------
General Integration Accuracy     IntAcc      ... 4.338
Radial Grid Type                 RadialGrid  ... OptM3 with GC (2021)
Angular Grid (max. ang.)         AngularGrid ... 3 (Lebedev-194)
Angular grid pruning method      GridPruning ... 4 (adaptive)
Weight generation scheme         WeightScheme... Becke
Basis function cutoff            BFCut       ... 1.0000e-11
Integration weight cutoff        WCut        ... 1.0000e-14
Angular grids for H and He will be reduced by one unit
Partially contracted basis set               ... on
Rotationally invariant grid construction     ... off

Total number of grid points                  ...    19697
Total number of batches                      ...      309
Average number of points per batch           ...       63
Average number of grid points per atom       ...     4924
UseSFitting                                  ... on

Time for X-Grid setup             =    0.319 sec

--------------
SCF ITERATIONS
[...]
  FA   - Mayer's free valence

  ATOM       NA         ZA         QA         VA         BVA        FA
  0 C      5.4677     6.0000     0.5323     3.7730     3.1796     0.5933
  1 F      9.1772     9.0000    -0.1772     1.0216     1.0159     0.0057
  2 F      9.1775     9.0000    -0.1775     1.0211     1.0154     0.0057
  3 F      9.1775     9.0000    -0.1775     1.0211     1.0154     0.0057

  Mayer bond orders larger than 0.100000
B(  0-C ,  1-F ) :   1.0602 B(  0-C ,  2-F ) :   1.0597 B(  0-C ,  3-F ) :   1.0597 


-------
TIMINGS
-------

Total SCF time: 0 days 0 hours 0 min 4 sec 

Total time                  ....       4.437 sec
Sum of individual times     ....       3.850 sec  ( 86.8%)

Fock matrix formation       ....       3.031 sec  ( 68.3%)
  Split-RI-J                ....       0.511 sec  ( 16.9% of F)
  Chain of spheres X        ....       1.347 sec  ( 44.4% of F)
  XC integration            ....       0.533 sec  ( 17.6% of F)
    Basis function eval.    ....       0.036 sec  (  6.7% of XC)
    Density eval.           ....       0.046 sec  (  8.5% of XC)
    XC-Functional eval.     ....       0.019 sec  (  3.5% of XC)
    XC-Potential eval.      ....       0.063 sec  ( 11.8% of XC)
Diagonalization             ....       0.101 sec  (  2.3%)
Density matrix formation    ....       0.007 sec  (  0.2%)
Population analysis         ....       0.134 sec  (  3.0%)
Initial guess               ....       0.020 sec  (  0.5%)
Orbital Transformation      ....       0.000 sec  (  0.0%)
Orbital Orthonormalization  ....       0.010 sec  (  0.2%)
DIIS solution               ....       0.046 sec  (  1.0%)
Grid generation             ....       0.511 sec  ( 11.5%)

Maximum memory used throughout the entire SCF-calculation: 63.2 MB


-------------------------------------------------------------------------------
                          DFT DISPERSION CORRECTION                            
                                                                               
                              DFTD3 V3.1  Rev 1                                
                              USING zero damping                               
-------------------------------------------------------------------------------
The omegaB97X-D3 functional is recognized. Fit by Chai et al.
Active option DFTDOPT                   ...         3   

molecular C6(AA) [au] = 165.591972 


            DFT-D V3
 parameters
 s6 scaling factor         :     1.0000 
 rs6 scaling factor        :     1.2810 
 s8 scaling factor         :     1.0000 
 rs8 scaling factor        :     1.0940 
 Damping factor alpha6     :    14.0000 
 Damping factor alpha8     :    16.0000 
 ad hoc parameters k1-k3   :    16.0000     1.3333    -4.0000 

 Edisp/kcal,au: -0.031196833165  -0.000049715313 
 E6   /kcal   :  -0.003955955 
 E8   /kcal   :  -0.027240879 
 % E8         :  87.319371202 

-------------------------   ----------------
Dispersion correction           -0.000049715
-------------------------   ----------------


-------------------------   --------------------
FINAL SINGLE POINT ENERGY      -337.577840637553
-------------------------   --------------------

                                *** OPTIMIZATION RUN DONE ***

                            ***************************************
                            *     ORCA property calculations      *
                            ***************************************

                                    ---------------------
                                    Active property flags
                                    ---------------------
   (+) Dipole Moment


------------------------------------------------------------------------------
                       ORCA ELECTRIC PROPERTIES CALCULATION
------------------------------------------------------------------------------

Dipole Moment Calculation                       ... on
Quadrupole Moment Calculation                   ... off
Polarizability Calculation                      ... off
GBWName                                         ... /beegfs/scratch/ispackman/PFAS_EPR_calcs/benchmark/JChemEd_CF3_radical/CF3_radical_96.5_degrees_IN-PROGRESS/CF3_radical_96.5_degrees.gbw
Electron density                                ... /beegfs/scratch/ispackman/PFAS_EPR_calcs/benchmark/JChemEd_CF3_radical/CF3_radical_96.5_degrees_IN-PROGRESS/CF3_radical_96.5_degrees.scfp
The origin for moment calculation is the CENTER OF MASS  = (-0.000013,  0.000000 -1.045651)

-------------
DIPOLE MOMENT
-------------
                                X             Y             Z
Electronic contribution:      0.00038      -0.00000       0.17322
Nuclear contribution   :      0.00004      -0.00000       0.33456
                        -----------------------------------------
Total Dipole Moment    :      0.00042      -0.00000       0.50778
                        -----------------------------------------
Magnitude (a.u.)       :      0.50778
Magnitude (Debye)      :      1.29068



--------------------
Rotational spectrum 
--------------------
 
Rotational constants in cm-1:     0.383498     0.383424     0.214922 
Rotational constants in MHz : 11496.985512 11494.772675  6443.202596 

 Dipole components along the rotational axes: 
x,y,z [a.u.] :    -0.000000    -0.000445     0.507780 
x,y,z [Debye]:    -0.000001    -0.001130     1.290675 

 


           ************************************************************
           *        Program running with 18 parallel MPI-processes    *
           *              working on a common directory               *
           ************************************************************

-------------------------------------------------------------------------------
                               ORCA SCF HESSIAN
-------------------------------------------------------------------------------

                   --------- SHARK INITIALIZATION DONE ---------

Hessian of the Kohn-Sham DFT energy:
Kohn-Sham wavefunction type                      ... UKS
Hartree-Fock exchange scaling                    ...    0.196
Number of operators                              ...    2
Number of atoms                                  ...    4
Basis set dimensions                             ...  157
Integral neglect threshold                       ... 2.5e-11
Integral primitive cutoff                        ... 2.5e-12

Setting up DFT Hessian calculations              ... 

HESS GRID
---------

General Integration Accuracy     IntAcc      ... 4.629
Radial Grid Type                 RadialGrid  ... OptM3 with GC (2021)
Angular Grid (max. ang.)         AngularGrid ... 5 (Lebedev-434)
Angular grid pruning method      GridPruning ... 4 (adaptive)
Weight generation scheme         WeightScheme... Becke
Basis function cutoff            BFCut       ... 1.0000e-11
Integration weight cutoff        WCut        ... 1.0000e-14
Angular grids for H and He will be reduced by one unit
Partially contracted basis set               ... off
Rotationally invariant grid construction     ... off

Total number of grid points                  ...    39987
Total number of batches                      ...      627
Average number of points per batch           ...       63
Average number of grid points per atom       ...     9997

Building densities                               ... done   (      0.0 sec)
Calculating rho(r) on the grid                   ... done   (      0.1 sec)
Building xc-kernel on the grid                   ... done   (      0.1 sec)
                                                     done   (      0.6 sec)

Nuclear repulsion Hessian  (SHARK)               ... done   (      0.0 sec)

----------------------------------------------
Forming right-hand sides of CP-SCF equations     ...
----------------------------------------------
One electron integral derivatives  (SHARK)       ... done   (      0.0 sec)
Transforming the overlap derivative matrices     ... done   (      0.0 sec)
Making the Q(x) pseudodensities                  ... done   (      0.0 sec)
Adding the E*S(x)*S(y) terms to the Hessian      ... done   (      0.0 sec)
Calculating energy weighted overlap derivatives  ... done   (      0.0 sec)
Two electron integral derivatives (SHARK-RI)     ... done   (      2.4 sec)
Exchange-correlation integral derivatives        ... done   (      2.3 sec)
tr(F(y)Q(x)) contribution to the Hessian         ... done   (      0.0 sec)
Response fock operator R(S(x)) (SHARK-RIJCOSX)   ... done   (      0.9 sec)
XC Response fock operator R(S(x))                ... done   (      0.5 sec)
tr(F(y)S(x)) contribution to the Hessian         ... done   (      0.0 sec)
Transforming and finalizing RHSs                 ... done   (      0.1 sec)

----------------------------------------------
Solving the CP-SCF equations (RIJCOSX)           ...
----------------------------------------------
     CP-SCF ITERATION   0:   1.6132e-01 (   0.5 sec   0/ 12 done)
     CP-SCF ITERATION   1:   5.9302e-02 (   0.5 sec   0/ 12 done)
     CP-SCF ITERATION   2:   2.3940e-02 (   0.4 sec   0/ 12 done)
     CP-SCF ITERATION   3:   7.2576e-03 (   0.5 sec   0/ 12 done)
     CP-SCF ITERATION   4:   2.6704e-03 (   0.5 sec   0/ 12 done)
     CP-SCF ITERATION   5:   1.1768e-03 (   0.5 sec   1/ 12 done)
     CP-SCF ITERATION   6:   4.0402e-04 (   0.5 sec   2/ 12 done)
     CP-SCF ITERATION   7:   1.0878e-04 (   0.4 sec  10/ 12 done)
     CP-SCF ITERATION   8:   3.4744e-05 (   0.3 sec  12/ 12 done)
                    *** THE CP-SCF HAS CONVERGED ***

                                                 ... done   (      4.4 sec)
Forming perturbed density Hessian contributions  ... done   (      0.0 sec)
2nd integral derivative contribs (SHARK-RI)      ... done   (      7.0 sec)
Exchange-correlation Hessian                     ... done   (      1.0 sec)
Dispersion correction in the Hessian             ... done   (      0.1 sec)
Dipole derivatives                               ... (center of mass: -0.000013,  0.000000 -1.045651)done   (      0.1 sec)

Total SCF Hessian time: 0 days 0 hours 0 min 20 sec 

Writing the Hessian file to the disk             ... done


Maximum memory used throughout the entire SCFHESS-calculation: 145.2 MB

-----------------------
VIBRATIONAL FREQUENCIES
-----------------------

Scaling factor for frequencies =  1.000000000  (already applied!)

   0:         0.00 cm**-1
   1:         0.00 cm**-1
   2:         0.00 cm**-1
   3:         0.00 cm**-1
   4:         0.00 cm**-1
   5:         0.00 cm**-1
   6:       600.22 cm**-1
   7:       601.02 cm**-1
   8:       800.09 cm**-1
   9:       992.09 cm**-1
  10:       992.90 cm**-1
  11:      1062.36 cm**-1


------------
NORMAL MODES
------------

These modes are the Cartesian displacements weighted by the diagonal matrix
M(i,i)=1/sqrt(m[i]) where m[i] is the mass of the displaced atom
Thus, these vectors are normalized but *not* orthogonal

                  0          1          2          3          4          5    
      0       0.000000   0.000000   0.000000   0.000000   0.000000   0.000000
      1       0.000000   0.000000   0.000000   0.000000   0.000000   0.000000
      2       0.000000   0.000000   0.000000   0.000000   0.000000   0.000000
      3       0.000000   0.000000   0.000000   0.000000   0.000000   0.000000
      4       0.000000   0.000000   0.000000   0.000000   0.000000   0.000000
      5       0.000000   0.000000   0.000000   0.000000   0.000000   0.000000
      6       0.000000   0.000000   0.000000   0.000000   0.000000   0.000000
      7       0.000000   0.000000   0.000000   0.000000   0.000000   0.000000
      8       0.000000   0.000000   0.000000   0.000000   0.000000   0.000000
      9       0.000000   0.000000   0.000000   0.000000   0.000000   0.000000
     10       0.000000   0.000000   0.000000   0.000000   0.000000   0.000000
     11       0.000000   0.000000   0.000000   0.000000   0.000000   0.000000
                  6          7          8          9         10         11    
      0      -0.291410   0.000042   0.000702   0.000273  -0.878534  -0.002751
      1       0.000042   0.290918  -0.000000  -0.878635  -0.000273   0.000001
      2       0.000038   0.000000   0.595651   0.000001  -0.002084   0.821737
      3      -0.484519   0.000070  -0.447125  -0.000098   0.317882   0.281036
      4      -0.000088  -0.607925   0.000000   0.051420   0.000016   0.000000
      5      -0.072425   0.000010  -0.125384   0.000068  -0.217839  -0.173878
      6       0.334310  -0.473373   0.223341  -0.115876   0.118738  -0.139648
      7       0.473759   0.211932  -0.386163   0.252074  -0.117056   0.241647
      8       0.036209   0.062575  -0.125601  -0.189075   0.109519  -0.172822
      9       0.334446   0.473277   0.223341   0.115802   0.118811  -0.139649
     10      -0.473698   0.212068   0.386163   0.252001   0.117213  -0.241648
     11       0.036191  -0.062585  -0.125601   0.189007   0.109637  -0.172822


-----------
IR SPECTRUM
-----------

 Mode   freq       eps      Int      T**2         TX        TY        TZ
       cm**-1   L/(mol*cm) km/mol    a.u.
----------------------------------------------------------------------------
  6:    600.22   0.000297    1.50  0.000154  (-0.012422  0.000002 -0.000005)
  7:    601.02   0.000293    1.48  0.000152  ( 0.000002  0.012336  0.000000)
  8:    800.09   0.003059   15.46  0.001193  ( 0.000134 -0.000000  0.034543)
  9:    992.09   0.056656  286.32  0.017821  ( 0.000042 -0.133497  0.000000)
 10:    992.90   0.056696  286.52  0.017819  (-0.133488 -0.000041 -0.000134)
 11:   1062.36   0.008594   43.43  0.002524  (-0.000453  0.000000  0.050240)

* The epsilon (eps) is given for a Dirac delta lineshape.
** The dipole moment derivative (T) already includes vibrational overlap.

The first frequency considered to be a vibration is 6
The total number of vibrations considered is 6


--------------------------
THERMOCHEMISTRY AT 298.15K
--------------------------

Temperature         ... 298.15 K
Pressure            ... 1.00 atm
Total Mass          ... 69.00 AMU

Throughout the following assumptions are being made:
  (1) The electronic state is orbitally nondegenerate
      but the spin degeneracy is treated
  (2) There are no thermally accessible electronically excited states
  (3) Hindered rotations indicated by low frequency modes are not
      treated as such but are treated as vibrations and this may
      cause some error
  (4) All equations used are the standard statistical mechanics
      equations for an ideal gas
  (5) All vibrations are strictly harmonic

freq.     600.22  E(vib)   ...       0.10 
freq.     601.02  E(vib)   ...       0.10 
freq.     800.09  E(vib)   ...       0.05 
freq.     992.09  E(vib)   ...       0.02 
freq.     992.90  E(vib)   ...       0.02 
freq.    1062.36  E(vib)   ...       0.02 

------------
INNER ENERGY
------------

The inner energy is: U= E(el) + E(ZPE) + E(vib) + E(rot) + E(trans)
    E(el)   - is the total energy from the electronic structure calculation
              = E(kin-el) + E(nuc-el) + E(el-el) + E(nuc-nuc)
    E(ZPE)  - the the zero temperature vibrational energy from the frequency calculation
    E(vib)  - the the finite temperature correction to E(ZPE) due to population
              of excited vibrational states
    E(rot)  - is the rotational thermal energy
    E(trans)- is the translational thermal energy

Summary of contributions to the inner energy U:
Electronic energy                ...   -337.57784064 Eh
Zero point energy                ...      0.01150174 Eh       7.22 kcal/mol
Thermal vibrational correction   ...      0.00050241 Eh       0.32 kcal/mol
Thermal rotational correction    ...      0.00141627 Eh       0.89 kcal/mol
Thermal translational correction ...      0.00141627 Eh       0.89 kcal/mol
-----------------------------------------------------------------------
Total thermal energy                   -337.56300394 Eh


Summary of corrections to the electronic energy:
(perhaps to be used in another calculation)
Total thermal correction                  0.00333496 Eh       2.09 kcal/mol
Non-thermal (ZPE) correction              0.01150174 Eh       7.22 kcal/mol
-----------------------------------------------------------------------
Total correction                          0.01483670 Eh       9.31 kcal/mol


--------
ENTHALPY
--------

The enthalpy is H = U + kB*T
                kB is Boltzmann's constant
Total free energy                 ...   -337.56300394 Eh 
Thermal Enthalpy correction       ...      0.00094421 Eh       0.59 kcal/mol
-----------------------------------------------------------------------
Total Enthalpy                    ...   -337.56205973 Eh


Note: Rotational entropy computed according to Herzberg 
Infrared and Raman Spectra, Chapter V,1, Van Nostrand Reinhold, 1945 
Point Group:  Cs, Symmetry Number:   1  
Rotational constants in cm-1:     0.383498     0.383424     0.214922 

Vibrational entropy computed according to the QRRHO of S. Grimme
Chem.Eur.J. 2012 18 9955


-------
ENTROPY
-------

The entropy contributions are T*S = T*(S(el)+S(vib)+S(rot)+S(trans))
     S(el)   - electronic entropy
     S(vib)  - vibrational entropy
     S(rot)  - rotational entropy
     S(trans)- translational entropy
The entropies will be listed as multiplied by the temperature to get
units of energy

Electronic entropy                ...      0.00065446 Eh      0.41 kcal/mol
Vibrational entropy               ...      0.00065152 Eh      0.41 kcal/mol
Rotational entropy                ...      0.01114165 Eh      6.99 kcal/mol
Translational entropy             ...      0.01834582 Eh     11.51 kcal/mol
-----------------------------------------------------------------------
Final entropy term                ...      0.03079345 Eh     19.32 kcal/mol

In case the symmetry of your molecule has not been determined correctly
or in case you have a reason to use a different symmetry number we print 
out the resulting rotational entropy values for sn=1,12 :
 --------------------------------------------------------
|  sn= 1 | S(rot)=       0.01114165 Eh      6.99 kcal/mol|
|  sn= 2 | S(rot)=       0.01048720 Eh      6.58 kcal/mol|
|  sn= 3 | S(rot)=       0.01010436 Eh      6.34 kcal/mol|
|  sn= 4 | S(rot)=       0.00983274 Eh      6.17 kcal/mol|
|  sn= 5 | S(rot)=       0.00962205 Eh      6.04 kcal/mol|
|  sn= 6 | S(rot)=       0.00944991 Eh      5.93 kcal/mol|
|  sn= 7 | S(rot)=       0.00930436 Eh      5.84 kcal/mol|
|  sn= 8 | S(rot)=       0.00917828 Eh      5.76 kcal/mol|
|  sn= 9 | S(rot)=       0.00906708 Eh      5.69 kcal/mol|
|  sn=10 | S(rot)=       0.00896760 Eh      5.63 kcal/mol|
|  sn=11 | S(rot)=       0.00887761 Eh      5.57 kcal/mol|
|  sn=12 | S(rot)=       0.00879545 Eh      5.52 kcal/mol|
 --------------------------------------------------------


-------------------
GIBBS FREE ENERGY
-------------------

The Gibbs free energy is G = H - T*S

Total enthalpy                    ...   -337.56205973 Eh 
Total entropy correction          ...     -0.03079345 Eh    -19.32 kcal/mol
-----------------------------------------------------------------------
Final Gibbs free energy         ...   -337.59285318 Eh

For completeness - the Gibbs free energy minus the electronic energy
G-E(el)                           ...     -0.01501255 Eh     -9.42 kcal/mol


Timings for individual modules:

Sum of individual times         ...      105.784 sec (=   1.763 min)
GTO integral calculation        ...       13.253 sec (=   0.221 min)  12.5 %
SCF iterations                  ...       55.120 sec (=   0.919 min)  52.1 %
SCF Gradient evaluation         ...       14.341 sec (=   0.239 min)  13.6 %
Geometry relaxation             ...        0.212 sec (=   0.004 min)   0.2 %
Analytical frequency calculation...       22.857 sec (=   0.381 min)  21.6 %
                             ****ORCA TERMINATED NORMALLY****
TOTAL RUN TIME: 0 days 0 hours 1 minutes 59 seconds 824 msec

slurmID:    32260084
totalRuntime[s]:    119.860666568
