
                                 *****************
                                 * O   R   C   A *
                                 *****************

                                            #,                                       
                                            ###                                      
                                            ####                                     
                                            #####                                    
                                            ######                                   
                                           ########,                                 
                                     ,,################,,,,,                         
                               ,,#################################,,                 
                          ,,##########################################,,             
                       ,#########################################, ''#####,          
                    ,#############################################,,   '####,        
                  ,##################################################,,,,####,       
                ,###########''''           ''''###############################       
              ,#####''   ,,,,##########,,,,          '''####'''          '####       
            ,##' ,,,,###########################,,,                        '##       
           ' ,,###''''                  '''############,,,                           
         ,,##''                                '''############,,,,        ,,,,,,###''
      ,#''                                            '''#######################'''  
     '                                                          ''''####''''         
             ,#######,   #######,   ,#######,      ##                                
            ,#'     '#,  ##    ##  ,#'     '#,    #''#        ######   ,####,        
            ##       ##  ##   ,#'  ##            #'  '#       #        #'  '#        
            ##       ##  #######   ##           ,######,      #####,   #    #        
            '#,     ,#'  ##    ##  '#,     ,#' ,#      #,         ##   #,  ,#        
             '#######'   ##     ##  '#######'  #'      '#     #####' # '####'        



                  #######################################################
                  #                        -***-                        #
                  #          Department of theory and spectroscopy      #
                  #    Directorship and core code : Frank Neese         #
                  #        Max Planck Institute fuer Kohlenforschung    #
                  #                Kaiser Wilhelm Platz 1               #
                  #                 D-45470 Muelheim/Ruhr               #
                  #                      Germany                        #
                  #                                                     #
                  #                  All rights reserved                #
                  #                        -***-                        #
                  #######################################################


                         Program Version 5.0.4 -  RELEASE  -


 With contributions from (in alphabetic order):
   Daniel Aravena         : Magnetic Suceptibility
   Michael Atanasov       : Ab Initio Ligand Field Theory (pilot matlab implementation)
   Alexander A. Auer      : GIAO ZORA, VPT2 properties, NMR spectrum
   Ute Becker             : Parallelization
   Giovanni Bistoni       : ED, misc. LED, open-shell LED, HFLD
   Martin Brehm           : Molecular dynamics
   Dmytro Bykov           : SCF Hessian
   Vijay G. Chilkuri      : MRCI spin determinant printing, contributions to CSF-ICE
   Dipayan Datta          : RHF DLPNO-CCSD density
   Achintya Kumar Dutta   : EOM-CC, STEOM-CC
   Dmitry Ganyushin       : Spin-Orbit,Spin-Spin,Magnetic field MRCI
   Miquel Garcia          : C-PCM and meta-GGA Hessian, CC/C-PCM, Gaussian charge scheme
   Yang Guo               : DLPNO-NEVPT2, F12-NEVPT2, CIM, IAO-localization
   Andreas Hansen         : Spin unrestricted coupled pair/coupled cluster methods
   Benjamin Helmich-Paris : MC-RPA, TRAH-SCF, COSX integrals
   Lee Huntington         : MR-EOM, pCC
   Robert Izsak           : Overlap fitted RIJCOSX, COSX-SCS-MP3, EOM
   Marcus Kettner         : VPT2
   Christian Kollmar      : KDIIS, OOCD, Brueckner-CCSD(T), CCSD density, CASPT2, CASPT2-K
   Simone Kossmann        : Meta GGA functionals, TD-DFT gradient, OOMP2, MP2 Hessian
   Martin Krupicka        : Initial AUTO-CI
   Lucas Lang             : DCDCAS
   Marvin Lechner         : AUTO-CI (C++ implementation), FIC-MRCC
   Dagmar Lenk            : GEPOL surface, SMD
   Dimitrios Liakos       : Extrapolation schemes; Compound Job, initial MDCI parallelization
   Dimitrios Manganas     : Further ROCIS development; embedding schemes
   Dimitrios Pantazis     : SARC Basis sets
   Anastasios Papadopoulos: AUTO-CI, single reference methods and gradients
   Taras Petrenko         : DFT Hessian,TD-DFT gradient, ASA, ECA, R-Raman, ABS, FL, XAS/XES, NRVS
   Peter Pinski           : DLPNO-MP2, DLPNO-MP2 Gradient
   Christoph Reimann      : Effective Core Potentials
   Marius Retegan         : Local ZFS, SOC
   Christoph Riplinger    : Optimizer, TS searches, QM/MM, DLPNO-CCSD(T), (RO)-DLPNO pert. Triples
   Tobias Risthaus        : Range-separated hybrids, TD-DFT gradient, RPA, STAB
   Michael Roemelt        : Original ROCIS implementation
   Masaaki Saitow         : Open-shell DLPNO-CCSD energy and density
   Barbara Sandhoefer     : DKH picture change effects
   Avijit Sen             : IP-ROCIS
   Kantharuban Sivalingam : CASSCF convergence, NEVPT2, FIC-MRCI
   Bernardo de Souza      : ESD, SOC TD-DFT
   Georgi Stoychev        : AutoAux, RI-MP2 NMR, DLPNO-MP2 response
   Willem Van den Heuvel  : Paramagnetic NMR
   Boris Wezisla          : Elementary symmetry handling
   Frank Wennmohs         : Technical directorship


 We gratefully acknowledge several colleagues who have allowed us to
 interface, adapt or use parts of their codes:
   Stefan Grimme, W. Hujo, H. Kruse, P. Pracht,  : VdW corrections, initial TS optimization,
                  C. Bannwarth, S. Ehlert          DFT functionals, gCP, sTDA/sTD-DF
   Ed Valeev, F. Pavosevic, A. Kumar             : LibInt (2-el integral package), F12 methods
   Garnet Chan, S. Sharma, J. Yang, R. Olivares  : DMRG
   Ulf Ekstrom                                   : XCFun DFT Library
   Mihaly Kallay                                 : mrcc  (arbitrary order and MRCC methods)
   Jiri Pittner, Ondrej Demel                    : Mk-CCSD
   Frank Weinhold                                : gennbo (NPA and NBO analysis)
   Christopher J. Cramer and Donald G. Truhlar   : smd solvation model
   Lars Goerigk                                  : TD-DFT with DH, B97 family of functionals
   V. Asgeirsson, H. Jonsson                     : NEB implementation
   FAccTs GmbH                                   : IRC, NEB, NEB-TS, DLPNO-Multilevel, CI-OPT
                                                   MM, QMMM, 2- and 3-layer-ONIOM, Crystal-QMMM,
                                                   LR-CPCM, SF, NACMEs, symmetry and pop. for TD-DFT,
                                                   nearIR, NL-DFT gradient (VV10), updates on ESD,
                                                   ML-optimized integration grids
   S Lehtola, MJT Oliveira, MAL Marques          : LibXC Library
   Liviu Ungur et al                             : ANISO software


 Your calculation uses the libint2 library for the computation of 2-el integrals
 For citations please refer to: http://libint.valeyev.net

 Your ORCA version has been built with support for libXC version: 5.1.0
 For citations please refer to: https://tddft.org/programs/libxc/

 This ORCA versions uses:
   CBLAS   interface :  Fast vector & matrix operations
   LAPACKE interface :  Fast linear algebra routines
   SCALAPACK package :  Parallel linear algebra routines
   Shared memory     :  Shared parallel matrices
   BLAS/LAPACK       :  OpenBLAS 0.3.15  USE64BITINT DYNAMIC_ARCH NO_AFFINITY SkylakeX SINGLE_THREADED
        Core in use  :  SkylakeX
   Copyright (c) 2011-2014, The OpenBLAS Project


Your calculation utilizes the atom-pairwise dispersion correction
with the zero-damping scheme (D30)
Cite in your paper:
S.Grimme, J.Antony, S.Ehrlich and H.Krieg, J.Chem.Phys., 132, (2010), 154104 
   

XCFun DFT library Copyright 2009-2010 Ulf Ekstrom and contributors.
See http://admol.org/xcfun for more information.
This is free software; see the source code for copying conditions.
There is ABSOLUTELY NO WARRANTY; not even for MERCHANTABILITY or FITNESS FOR A PARTICULAR PURPOSE.
For details see the documentation.
Scientific users of this library should cite U. Ekstrom, L. Visscher, R. Bast, A. J. Thorvaldsen and K. Ruud;
J.Chem.Theor.Comp. 2010, DOI: 10.1021/ct100117s
XCFun Version 0.99 

================================================================================

----- Orbital basis set information -----
Your calculation utilizes the basis: def2-TZVPD
   F. Weigend and R. Ahlrichs, Phys. Chem. Chem. Phys. 7, 3297 (2005).
   D. Rappoport and F. Furche, J. Chem. Phys. 133 134105 (2010).

----- AuxJ basis set information -----
Your calculation utilizes the auxiliary basis: def2/J
   F. Weigend, Phys. Chem. Chem. Phys. 8, 1057 (2006).

================================================================================
                                        WARNINGS
                       Please study these warnings very carefully!
================================================================================


WARNING: Geometry Optimization
  ===> : Switching off AutoStart
         For restart on a previous wavefunction, please use MOREAD

INFO   : the flag for use of the SHARK integral package has been found!

================================================================================
                                       INPUT FILE
================================================================================
NAME = /beegfs/scratch/ispackman/PFAS_EPR_calcs/benchmark/JChemEd_CF3_radical/CF3_radical_108.0_degrees_IN-PROGRESS/CF3_radical_108.0_degrees.inp
|  1> ! UKS TightSCF wB97x-D3 def2-TZVPD xyzfile opt freq
|  2> 
|  3> # CF3 radical 108.0 degrees fixed
|  4> 
|  5> %maxcore 1000
|  6> %pal
|  7> nprocs 18
|  8> end
|  9> 
| 10> %geom Constraints
| 11>         { A * 0 * C }
| 12>     end
| 13> end
| 14> * xyz 0 2
| 15> C 0.00 0.00 0.00
| 16> F 1.2284366520 0.0000000000 -0.4692210481
| 17> F -0.6142183260 1.0638573476 -0.4692210481
| 18> F -0.6142183260 -1.0638573476 -0.4692210481
| 19> **                         ****END OF INPUT****
================================================================================

                       *****************************
                       * Geometry Optimization Run *
                       *****************************

Geometry optimization settings:
Update method            Update   .... BFGS
Choice of coordinates    CoordSys .... Z-matrix Internals
Initial Hessian          InHess   .... Almoef's Model

Convergence Tolerances:
Energy Change            TolE     ....  5.0000e-06 Eh
Max. Gradient            TolMAXG  ....  3.0000e-04 Eh/bohr
RMS Gradient             TolRMSG  ....  1.0000e-04 Eh/bohr
Max. Displacement        TolMAXD  ....  4.0000e-03 bohr
RMS Displacement         TolRMSD  ....  2.0000e-03 bohr
Strict Convergence                ....  False
------------------------------------------------------------------------------
                        ORCA OPTIMIZATION COORDINATE SETUP
------------------------------------------------------------------------------

The optimization will be done in new redundant internal coordinates
Making redundant internal coordinates   ...  (new redundants) done
Evaluating the initial hessian          ...  (Almloef) done
Evaluating the coordinates              ...  done
Calculating the B-matrix                .... done
Calculating the G-matrix                .... done
Diagonalizing the G-matrix              .... done
Imposing constraints:
 Iter   0:  RMS(Cart)=    0.0000000000 RMS(Int)=    0.0000000000
CONVERGED
Will constrain atom 0 coordinate 1 
Will constrain atom 0 coordinate 2 
Will constrain atom 1 coordinate 2 
The first mode is                       ....    1
The number of degrees of freedom        ....    6
Storing new coordinates                 .... done

    -----------------------------------------------------------------
                    Redundant Internal Coordinates


    -----------------------------------------------------------------
         Definition                    Initial Value    Approx d2E/dq
    -----------------------------------------------------------------
      1. B(F   1,C   0)                  1.3150         0.684896   
      2. B(F   2,C   0)                  1.3150         0.684896   
      3. B(F   3,C   0)                  1.3150         0.684896   
      4. A(F   2,C   0,F   3)          108.0000         0.440101 C 
      5. A(F   1,C   0,F   2)          108.0000         0.440101 C 
      6. A(F   1,C   0,F   3)          108.0000         0.440101 C 
      7. I(F   1,F   3,F   2,C   0)     58.2825         0.009085   
    -----------------------------------------------------------------

Number of atoms                         .... 4
Number of degrees of freedom            .... 7

         *************************************************************
         *                GEOMETRY OPTIMIZATION CYCLE   1            *
         *************************************************************
---------------------------------
CARTESIAN COORDINATES (ANGSTROEM)
---------------------------------
  C      0.000000    0.000000    0.000000
  F      1.228437    0.000000   -0.469221
  F     -0.614218    1.063857   -0.469221
  F     -0.614218   -1.063857   -0.469221

----------------------------
CARTESIAN COORDINATES (A.U.)
----------------------------
  NO LB      ZA    FRAG     MASS         X           Y           Z
   0 C     6.0000    0    12.011    0.000000    0.000000    0.000000
   1 F     9.0000    0    18.998    2.321409    0.000000   -0.886699
   2 F     9.0000    0    18.998   -1.160704    2.010399   -0.886699
   3 F     9.0000    0    18.998   -1.160704   -2.010399   -0.886699

--------------------------------
INTERNAL COORDINATES (ANGSTROEM)
--------------------------------
 C      0   0   0     0.000000000000     0.00000000     0.00000000
 F      1   0   0     1.314999999984     0.00000000     0.00000000
 F      1   2   0     1.315000000006   108.00000000     0.00000000
 F      1   2   3     1.315000000006   108.00000000   116.56505117

---------------------------
INTERNAL COORDINATES (A.U.)
---------------------------
 C      0   0   0     0.000000000000     0.00000000     0.00000000
 F      1   0   0     2.484989866076     0.00000000     0.00000000
 F      1   2   0     2.484989866119   108.00000000     0.00000000
 F      1   2   3     2.484989866119   108.00000000   116.56505117

---------------------
BASIS SET INFORMATION
---------------------
There are 2 groups of distinct atoms

 Group   1 Type C   : 12s6p3d1f contracted to 6s3p3d1f pattern {621111/411/111/1}
 Group   2 Type F   : 12s7p3d1f contracted to 6s4p3d1f pattern {621111/4111/111/1}

Atom   0C    basis set group =>   1
Atom   1F    basis set group =>   2
Atom   2F    basis set group =>   2
Atom   3F    basis set group =>   2
---------------------------------
AUXILIARY/J BASIS SET INFORMATION
---------------------------------
There are 2 groups of distinct atoms

 Group   1 Type C   : 12s5p4d2f1g contracted to 6s4p3d1f1g pattern {711111/2111/211/2/1}
 Group   2 Type F   : 12s5p4d2f1g contracted to 6s4p3d1f1g pattern {711111/2111/211/2/1}

Atom   0C    basis set group =>   1
Atom   1F    basis set group =>   2
Atom   2F    basis set group =>   2
Atom   3F    basis set group =>   2


           ************************************************************
           *        Program running with 18 parallel MPI-processes    *
           *              working on a common directory               *
           ************************************************************
------------------------------------------------------------------------------
                           ORCA GTO INTEGRAL CALCULATION
                           -- RI-GTO INTEGRALS CHOSEN --
------------------------------------------------------------------------------
------------------------------------------------------------------------------
                   ___                                                        
                  /   \      - P O W E R E D   B Y -                         
                 /     \                                                     
                 |  |  |   _    _      __       _____    __    __             
                 |  |  |  | |  | |    /  \     |  _  \  |  |  /  |          
                  \  \/   | |  | |   /    \    | | | |  |  | /  /          
                 / \  \   | |__| |  /  /\  \   | |_| |  |  |/  /          
                |  |  |   |  __  | /  /__\  \  |    /   |      \           
                |  |  |   | |  | | |   __   |  |    \   |  |\   \          
                \     /   | |  | | |  |  |  |  | |\  \  |  | \   \       
                 \___/    |_|  |_| |__|  |__|  |_| \__\ |__|  \__/        
                                                                              
                      - O R C A' S   B I G   F R I E N D -                    
                                      &                                       
                       - I N T E G R A L  F E E D E R -                       
                                                                              
 v1 FN, 2020, v2 2021                                                         
------------------------------------------------------------------------------


Reading SHARK input file /beegfs/scratch/ispackman/PFAS_EPR_calcs/benchmark/JChemEd_CF3_radical/CF3_radical_108.0_degrees_IN-PROGRESS/CF3_radical_108.0_degrees.SHARKINP.tmp ... ok
----------------------
SHARK INTEGRAL PACKAGE
----------------------

Number of atoms                             ...      4
Number of basis functions                   ...    157
Number of shells                            ...     55
Maximum angular momentum                    ...      3
Integral batch strategy                     ... SHARK/LIBINT Hybrid
RI-J (if used) integral strategy            ... SPLIT-RIJ (Revised 2003 algorithm where possible)
Printlevel                                  ...      1
Contraction scheme used                     ... SEGMENTED contraction
Coulomb Range Separation                    ... NOT USED
Exchange Range Separation                   ... Long Range
   Mu parameter                             ...  0.250000
   Scaling (regular/separated)              ...  0.195728  0.804272
Finite Nucleus Model                        ... NOT USED
Auxiliary Coulomb fitting basis             ... AVAILABLE
   # of basis functions in Aux-J            ...    196
   # of shells in Aux-J                     ...     60
   Maximum angular momentum in Aux-J        ...      4
Auxiliary J/K fitting basis                 ... NOT available
Auxiliary Correlation fitting basis         ... NOT available
Auxiliary 'external' fitting basis          ... NOT available
Integral threshold                          ...     2.500000e-11
Primitive cut-off                           ...     2.500000e-12
Primitive pair pre-selection threshold      ...     2.500000e-12

Calculating pre-screening integrals         ... done (  0.0 sec) Dimension = 55
Organizing shell pair data                  ... done (  0.0 sec)
Shell pair information
Total number of shell pairs                 ...      1540
Shell pairs after pre-screening             ...      1504
Total number of primitive shell pairs       ...      4274
Primitive shell pairs kept                  ...      3545
          la=0 lb=0:    282 shell pairs
          la=1 lb=0:    354 shell pairs
          la=1 lb=1:    120 shell pairs
          la=2 lb=0:    276 shell pairs
          la=2 lb=1:    180 shell pairs
          la=2 lb=2:     78 shell pairs
          la=3 lb=0:     96 shell pairs
          la=3 lb=1:     60 shell pairs
          la=3 lb=2:     48 shell pairs
          la=3 lb=3:     10 shell pairs

Calculating one electron integrals          ... done (  0.0 sec)
Calculating RI/J V-Matrix + Cholesky decomp.... done (  1.3 sec)
Calculating Nuclear repulsion               ... done (  0.0 sec) ENN=    125.627176000489 Eh

SHARK setup successfully completed in  12.0 seconds

Maximum memory used throughout the entire GTOINT-calculation: 15.2 MB


           ************************************************************
           *        Program running with 18 parallel MPI-processes    *
           *              working on a common directory               *
           ************************************************************
-------------------------------------------------------------------------------
                                 ORCA SCF
-------------------------------------------------------------------------------

------------
SCF SETTINGS
------------
Hamiltonian:
 Density Functional     Method          .... DFT(GTOs)
 Exchange Functional    Exchange        .... WB97X-D3
 Correlation Functional Correlation     .... WB97X-D3
 Gradients option       PostSCFGGA      .... off
 Hybrid DFT is turned on
   Fraction HF Exchange ScalHFX         ....  0.195728
   Scaling of DF-GGA-X  ScalDFX         ....  0.000000
   Scaling of DF-GGA-C  ScalDFC         ....  1.000000
   Scaling of DF-LDA-C  ScalLDAC        ....  1.000000
   Perturbative correction              ....  0.000000
   Density functional embedding theory  .... OFF
 Long-range corrected/Screened/Range-Separated Hybrid DFT is turned on
   Amount of maximum screened exact exchange              ....  0.804272
   Range separation parameter mu (erf(mu*r12)/r12)        ....  0.250000
 RI-approximation to the Coulomb term is turned on
   Number of AuxJ basis functions       .... 196
   RIJ-COSX (HFX calculated with COS-X)).... on


General Settings:
 Integral files         IntName         .... /beegfs/scratch/ispackman/PFAS_EPR_calcs/benchmark/JChemEd_CF3_radical/CF3_radical_108.0_degrees_IN-PROGRESS/CF3_radical_108.0_degrees
 Hartree-Fock type      HFTyp           .... UHF
 Total Charge           Charge          ....    0
 Multiplicity           Mult            ....    2
 Number of Electrons    NEL             ....   33
 Basis Dimension        Dim             ....  157
 Nuclear Repulsion      ENuc            ....    125.6271760005 Eh

Convergence Acceleration:
 DIIS                   CNVDIIS         .... on
   Start iteration      DIISMaxIt       ....    12
   Startup error        DIISStart       ....  0.200000
   # of expansion vecs  DIISMaxEq       ....     5
   Bias factor          DIISBfac        ....   1.050
   Max. coefficient     DIISMaxC        ....  10.000
 Trust-Rad. Augm. Hess. CNVTRAH         .... auto
   Auto Start mean grad. ratio tolernc. ....  1.125000
   Auto Start start iteration           ....    20
   Auto Start num. interpolation iter.  ....    10
   Max. Number of Micro iterations      ....    16
   Max. Number of Macro iterations      .... Maxiter - #DIIS iter
   Number of Davidson start vectors     ....     2
   Converg. threshold I  (grad. norm)   ....   1.000e-05
   Converg. threshold II (energy diff.) ....   1.000e-08
   Grad. Scal. Fac. for Micro threshold ....   0.100
   Minimum threshold for Micro iter.    ....   0.010
   NR start threshold (gradient norm)   ....   0.001
   Initial trust radius                 ....   0.400
   Minimum AH scaling param. (alpha)    ....   1.000
   Maximum AH scaling param. (alpha)    .... 1000.000
   Orbital update algorithm             .... Taylor
   White noise on init. David. guess    .... on
   Maximum white noise                  ....   0.010
   Quad. conv. algorithm                .... NR
 SOSCF                  CNVSOSCF        .... off
 Level Shifting         CNVShift        .... on
   Level shift para.    LevelShift      ....    0.2500
   Turn off err/grad.   ShiftErr        ....    0.0010
 Zerner damping         CNVZerner       .... off
 Static damping         CNVDamp         .... on
   Fraction old density DampFac         ....    0.7000
   Max. Damping (<1)    DampMax         ....    0.9800
   Min. Damping (>=0)   DampMin         ....    0.0000
   Turn off err/grad.   DampErr         ....    0.1000
 Fernandez-Rico         CNVRico         .... off

SCF Procedure:
 Maximum # iterations   MaxIter         ....   125
 SCF integral mode      SCFMode         .... Direct
   Integral package                     .... SHARK and LIBINT hybrid scheme
 Reset frequency        DirectResetFreq ....    20
 Integral Threshold     Thresh          ....  2.500e-11 Eh
 Primitive CutOff       TCut            ....  2.500e-12 Eh

Convergence Tolerance:
 Convergence Check Mode ConvCheckMode   .... Total+1el-Energy
 Convergence forced     ConvForced      .... 0
 Energy Change          TolE            ....  1.000e-08 Eh
 1-El. energy change                    ....  1.000e-05 Eh
 DIIS Error             TolErr          ....  5.000e-07


Diagonalization of the overlap matrix:
Smallest eigenvalue                        ... 3.256e-04
Time for diagonalization                   ...    0.008 sec
Threshold for overlap eigenvalues          ... 1.000e-08
Number of eigenvalues below threshold      ... 0
Time for construction of square roots      ...    0.016 sec
Total time needed                          ...    0.025 sec

Time for model grid setup =    0.072 sec

------------------------------
INITIAL GUESS: MODEL POTENTIAL
------------------------------
Loading Hartree-Fock densities                     ... done
Calculating cut-offs                               ... done
Initializing the effective Hamiltonian             ... done
Setting up the integral package (SHARK)            ... done
Starting the Coulomb interaction                   ... done (   0.4 sec)
Reading the grid                                   ... done
Mapping shells                                     ... done
Starting the XC term evaluation                    ... done (   0.0 sec)
  promolecular density results
     # of electrons  =     33.000044554
     EX              =    -35.097961107
     EC              =     -1.145704135
     EX+EC           =    -36.243665241
Transforming the Hamiltonian                       ... done (   0.0 sec)
Diagonalizing the Hamiltonian                      ... done (   0.0 sec)
Back transforming the eigenvectors                 ... done (   0.0 sec)
Now organizing SCF variables                       ... done
                      ------------------
                      INITIAL GUESS DONE (   0.6 sec)
                      ------------------
-------------------
DFT GRID GENERATION
-------------------

General Integration Accuracy     IntAcc      ... 4.388
Radial Grid Type                 RadialGrid  ... OptM3 with GC (2021)
Angular Grid (max. ang.)         AngularGrid ... 4 (Lebedev-302)
Angular grid pruning method      GridPruning ... 4 (adaptive)
Weight generation scheme         WeightScheme... Becke
Basis function cutoff            BFCut       ... 1.0000e-11
Integration weight cutoff        WCut        ... 1.0000e-14
Angular grids for H and He will be reduced by one unit
Partially contracted basis set               ... off
Rotationally invariant grid construction     ... off

Total number of grid points                  ...    25787
Total number of batches                      ...      405
Average number of points per batch           ...       63
Average number of grid points per atom       ...     6447
Time for grid setup =    0.250 sec

--------------------
COSX GRID GENERATION
--------------------

GRIDX 1
-------
General Integration Accuracy     IntAcc      ... 3.816
Radial Grid Type                 RadialGrid  ... OptM3 with GC (2021)
Angular Grid (max. ang.)         AngularGrid ... 1 (Lebedev-50)
Angular grid pruning method      GridPruning ... 4 (adaptive)
Weight generation scheme         WeightScheme... Becke
Basis function cutoff            BFCut       ... 1.0000e-11
Integration weight cutoff        WCut        ... 1.0000e-14
Angular grids for H and He will be reduced by one unit
Partially contracted basis set               ... on
Rotationally invariant grid construction     ... off

Total number of grid points                  ...     3270
Total number of batches                      ...       53
Average number of points per batch           ...       61
Average number of grid points per atom       ...      818
UseSFitting                                  ... on

GRIDX 2
-------
General Integration Accuracy     IntAcc      ... 4.020
Radial Grid Type                 RadialGrid  ... OptM3 with GC (2021)
Angular Grid (max. ang.)         AngularGrid ... 2 (Lebedev-110)
Angular grid pruning method      GridPruning ... 4 (adaptive)
Weight generation scheme         WeightScheme... Becke
Basis function cutoff            BFCut       ... 1.0000e-11
Integration weight cutoff        WCut        ... 1.0000e-14
Angular grids for H and He will be reduced by one unit
Partially contracted basis set               ... on
Rotationally invariant grid construction     ... off

Total number of grid points                  ...     9124
Total number of batches                      ...      145
Average number of points per batch           ...       62
Average number of grid points per atom       ...     2281
UseSFitting                                  ... on

GRIDX 3
-------
General Integration Accuracy     IntAcc      ... 4.338
Radial Grid Type                 RadialGrid  ... OptM3 with GC (2021)
Angular Grid (max. ang.)         AngularGrid ... 3 (Lebedev-194)
Angular grid pruning method      GridPruning ... 4 (adaptive)
Weight generation scheme         WeightScheme... Becke
Basis function cutoff            BFCut       ... 1.0000e-11
Integration weight cutoff        WCut        ... 1.0000e-14
Angular grids for H and He will be reduced by one unit
Partially contracted basis set               ... on
Rotationally invariant grid construction     ... off

Total number of grid points                  ...    19672
Total number of batches                      ...      308
Average number of points per batch           ...       63
Average number of grid points per atom       ...     4918
UseSFitting                                  ... on

Time for X-Grid setup             =    0.348 sec

--------------
SCF ITERATIONS
--------------
ITER       Energy         Delta-E        Max-DP      RMS-DP      [F,P]     Damp
               ***  Starting incremental Fock matrix formation  ***
  0   -337.5748870902   0.000000000000 0.01552334  0.00037064  0.0636440 0.7000
  1   -337.5981250933  -0.023238003085 0.00903276  0.00025016  0.0307085 0.7000
                               ***Turning on DIIS***
  2   -337.6080355756  -0.009910482318 0.01884284  0.00048765  0.0160432 0.0000
  3   -337.6260797864  -0.018044210756 0.00625176  0.00014242  0.0145307 0.0000
  4   -337.6288302145  -0.002750428124 0.00496886  0.00009199  0.0037801 0.0000
  5   -337.6290790747  -0.000248860156 0.00329656  0.00005789  0.0023364 0.0000
  6   -337.6291576466  -0.000078571976 0.00227551  0.00003733  0.0010136 0.0000
  7   -337.6291789100  -0.000021263395 0.00214044  0.00002971  0.0004170 0.0000
               *** Restarting incremental Fock matrix formation ***
                                   *** Resetting DIIS ***
  8   -337.6291900532  -0.000011143156 0.00073142  0.00000896  0.0000389 0.0000
  9   -337.6291901271  -0.000000073926 0.00010985  0.00000140  0.0000202 0.0000
 10   -337.6291901403  -0.000000013190 0.00002322  0.00000042  0.0000172 0.0000
 11   -337.6291901461  -0.000000005768 0.00001454  0.00000022  0.0000067 0.0000
 12   -337.6291901447   0.000000001381 0.00001229  0.00000014  0.0000016 0.0000
                 **** Energy Check signals convergence ****

               *****************************************************
               *                     SUCCESS                       *
               *           SCF CONVERGED AFTER  13 CYCLES          *
               *****************************************************

Old exchange energy                            =    -10.538869402 Eh
New exchange energy                            =    -10.538852493 Eh
Exchange energy change after final integration =      0.000016908 Eh
Total energy after final integration           =   -337.629173235 Eh
Final COS-X integration done in                =     0.390 sec

----------------
TOTAL SCF ENERGY
----------------

Total Energy       :         -337.62917323 Eh           -9187.35688 eV

Components:
Nuclear Repulsion  :          125.62717600 Eh            3418.48925 eV
Electronic Energy  :         -463.25634924 Eh          -12605.84613 eV
One Electron Energy:         -718.08014514 Eh          -19539.95414 eV
Two Electron Energy:          254.82379590 Eh            6934.10801 eV
Max COSX asymmetry :            0.00000069 Eh               0.00002 eV

Virial components:
Potential Energy   :         -674.27988607 Eh          -18348.08850 eV
Kinetic Energy     :          336.65071284 Eh            9160.73162 eV
Virial Ratio       :            2.00290646


DFT components:
N(Alpha)           :       16.999873902187 electrons
N(Beta)            :       15.999901919901 electrons
N(Total)           :       32.999775822088 electrons
E(XC)              :      -26.199064298888 Eh       
DFET-embed. en.    :        0.000000000000 Eh       

---------------
SCF CONVERGENCE
---------------

  Last Energy change         ...    1.3132e-09  Tolerance :   1.0000e-08
  Last MAX-Density change    ...    0.0000e+00  Tolerance :   1.0000e-07
  Last RMS-Density change    ...    0.0000e+00  Tolerance :   5.0000e-09
  Last DIIS Error            ...    6.0784e-07  Tolerance :   5.0000e-07

             **** THE GBW FILE WAS UPDATED (/beegfs/scratch/ispackman/PFAS_EPR_calcs/benchmark/JChemEd_CF3_radical/CF3_radical_108.0_degrees_IN-PROGRESS/CF3_radical_108.0_degrees.gbw) ****
             **** DENSITY /beegfs/scratch/ispackman/PFAS_EPR_calcs/benchmark/JChemEd_CF3_radical/CF3_radical_108.0_degrees_IN-PROGRESS/CF3_radical_108.0_degrees.scfp WAS UPDATED ****
             **** ENERGY FILE WAS UPDATED (/beegfs/scratch/ispackman/PFAS_EPR_calcs/benchmark/JChemEd_CF3_radical/CF3_radical_108.0_degrees_IN-PROGRESS/CF3_radical_108.0_degrees.en.tmp) ****
----------------------
UHF SPIN CONTAMINATION
----------------------

Warning: in a DFT calculation there is little theoretical justification to 
         calculate <S**2> as in Hartree-Fock theory. We will do it anyways
         but you should keep in mind that the values have only limited relevance

Expectation value of <S**2>     :     0.752005
Ideal value S*(S+1) for S=0.5   :     0.750000
Deviation                       :     0.002005

             **** THE GBW FILE WAS UPDATED (/beegfs/scratch/ispackman/PFAS_EPR_calcs/benchmark/JChemEd_CF3_radical/CF3_radical_108.0_degrees_IN-PROGRESS/CF3_radical_108.0_degrees.gbw) ****
             **** DENSITY /beegfs/scratch/ispackman/PFAS_EPR_calcs/benchmark/JChemEd_CF3_radical/CF3_radical_108.0_degrees_IN-PROGRESS/CF3_radical_108.0_degrees.scfp WAS UPDATED ****
----------------
ORBITAL ENERGIES
----------------
                 SPIN UP ORBITALS
  NO   OCC          E(Eh)            E(eV) 
   0   1.0000     -24.849517      -676.1897 
   1   1.0000     -24.849515      -676.1897 
   2   1.0000     -24.849507      -676.1895 
   3   1.0000     -10.544393      -286.9275 
   4   1.0000      -1.474943       -40.1352 
   5   1.0000      -1.379071       -37.5264 
   6   1.0000      -1.379066       -37.5263 
   7   1.0000      -0.839063       -22.8321 
   8   1.0000      -0.731560       -19.9068 
   9   1.0000      -0.731554       -19.9066 
  10   1.0000      -0.703194       -19.1349 
  11   1.0000      -0.607361       -16.5271 
  12   1.0000      -0.607359       -16.5271 
  13   1.0000      -0.565665       -15.3925 
  14   1.0000      -0.565652       -15.3922 
  15   1.0000      -0.541519       -14.7355 
  16   1.0000      -0.394797       -10.7430 
  17   0.0000       0.071453         1.9443 
  18   0.0000       0.104888         2.8542 
  19   0.0000       0.104889         2.8542 
  20   0.0000       0.113283         3.0826 
  21   0.0000       0.159942         4.3522 
  22   0.0000       0.159942         4.3522 
  23   0.0000       0.172771         4.7013 
  24   0.0000       0.172771         4.7013 
  25   0.0000       0.183616         4.9965 
  26   0.0000       0.234961         6.3936 
  27   0.0000       0.234965         6.3937 
  28   0.0000       0.239187         6.5086 
  29   0.0000       0.280413         7.6304 
  30   0.0000       0.327947         8.9239 
  31   0.0000       0.358045         9.7429 
  32   0.0000       0.358053         9.7431 
  33   0.0000       0.376907        10.2562 
  34   0.0000       0.388455        10.5704 
  35   0.0000       0.388458        10.5705 
  36   0.0000       0.408395        11.1130 
  37   0.0000       0.413596        11.2545 
  38   0.0000       0.413597        11.2545 
  39   0.0000       0.487863        13.2754 
  40   0.0000       0.487865        13.2755 
  41   0.0000       0.494564        13.4578 
  42   0.0000       0.575670        15.6648 
  43   0.0000       0.639794        17.4097 
  44   0.0000       0.639794        17.4097 
  45   0.0000       0.681715        18.5504 
  46   0.0000       0.681718        18.5505 
  47   0.0000       0.706177        19.2160 
  48   0.0000       0.706177        19.2161 
  49   0.0000       0.712990        19.4015 
  50   0.0000       0.735731        20.0202 
  51   0.0000       0.753628        20.5073 
  52   0.0000       0.789221        21.4758 
  53   0.0000       0.789227        21.4760 
  54   0.0000       0.872620        23.7452 
  55   0.0000       0.885677        24.1005 
  56   0.0000       0.885680        24.1006 
  57   0.0000       0.944672        25.7058 
  58   0.0000       0.975498        26.5446 
  59   0.0000       0.975498        26.5447 
  60   0.0000       1.067898        29.0590 
  61   0.0000       1.067900        29.0590 
  62   0.0000       1.093915        29.7669 
  63   0.0000       1.159419        31.5494 
  64   0.0000       1.167053        31.7571 
  65   0.0000       1.167054        31.7572 
  66   0.0000       1.231476        33.5102 
  67   0.0000       1.250109        34.0172 
  68   0.0000       1.250125        34.0176 
  69   0.0000       1.307751        35.5857 
  70   0.0000       1.331185        36.2234 
  71   0.0000       1.331195        36.2237 
  72   0.0000       1.448518        39.4162 
  73   0.0000       1.448538        39.4167 
  74   0.0000       1.687944        45.9313 
  75   0.0000       2.124504        57.8107 
  76   0.0000       2.141467        58.2723 
  77   0.0000       2.141470        58.2724 
  78   0.0000       2.189311        59.5742 
  79   0.0000       2.217434        60.3394 
  80   0.0000       2.217436        60.3395 
  81   0.0000       2.247291        61.1519 
  82   0.0000       2.328809        63.3701 
  83   0.0000       2.335569        63.5541 
  84   0.0000       2.335571        63.5541 
  85   0.0000       2.493438        67.8499 
  86   0.0000       2.493460        67.8505 
  87   0.0000       2.623187        71.3805 
  88   0.0000       2.623194        71.3807 
  89   0.0000       2.697505        73.4028 
  90   0.0000       2.835230        77.1505 
  91   0.0000       2.959234        80.5248 
  92   0.0000       2.959238        80.5250 
  93   0.0000       3.157841        85.9292 
  94   0.0000       3.192955        86.8847 
  95   0.0000       3.203573        87.1736 
  96   0.0000       3.203621        87.1750 
  97   0.0000       3.310836        90.0924 
  98   0.0000       3.310856        90.0930 
  99   0.0000       3.370565        91.7177 
 100   0.0000       3.370574        91.7180 
 101   0.0000       3.417537        92.9959 
 102   0.0000       3.590035        97.6898 
 103   0.0000       3.590062        97.6906 
 104   0.0000       3.739520       101.7575 
 105   0.0000       3.885565       105.7316 
 106   0.0000       3.939358       107.1954 
 107   0.0000       3.939432       107.1974 
 108   0.0000       3.974623       108.1550 
 109   0.0000       4.064605       110.6035 
 110   0.0000       4.064621       110.6039 
 111   0.0000       4.161066       113.2283 
 112   0.0000       4.161122       113.2299 
 113   0.0000       4.194746       114.1448 
 114   0.0000       5.281059       143.7049 
 115   0.0000       5.387670       146.6060 
 116   0.0000       5.387741       146.6079 
 117   0.0000       6.905318       187.9033 
 118   0.0000       6.910847       188.0537 
 119   0.0000       6.910886       188.0548 
 120   0.0000       6.912637       188.1024 
 121   0.0000       6.912693       188.1039 
 122   0.0000       6.922822       188.3796 
 123   0.0000       6.923650       188.4021 
 124   0.0000       6.924380       188.4220 
 125   0.0000       6.924429       188.4233 
 126   0.0000       7.073493       192.4795 
 127   0.0000       7.073504       192.4798 
 128   0.0000       7.102360       193.2650 
 129   0.0000       7.231057       196.7671 
 130   0.0000       7.231094       196.7681 
 131   0.0000       7.240486       197.0237 
 132   0.0000       7.458327       202.9514 
 133   0.0000       7.458409       202.9536 
 134   0.0000       7.511060       204.3863 
 135   0.0000       7.684286       209.1000 
 136   0.0000       7.732668       210.4166 
 137   0.0000       7.732719       210.4180 
 138   0.0000       8.502693       231.3700 
 139   0.0000       8.502710       231.3705 
 140   0.0000       8.521514       231.8822 
 141   0.0000       8.578268       233.4265 
 142   0.0000       8.578287       233.4271 
 143   0.0000       8.613076       234.3737 
 144   0.0000       8.825750       240.1609 
 145   0.0000       8.825773       240.1615 
 146   0.0000       8.828999       240.2493 
 147   0.0000       8.909710       242.4455 
 148   0.0000       9.101704       247.6700 
 149   0.0000       9.101766       247.6716 
 150   0.0000       9.222513       250.9573 
 151   0.0000       9.399993       255.7868 
 152   0.0000       9.400012       255.7873 
 153   0.0000      22.795511       620.2974 
 154   0.0000      57.244323      1557.6972 
 155   0.0000      57.279255      1558.6478 
 156   0.0000      57.279259      1558.6479 

                 SPIN DOWN ORBITALS
  NO   OCC          E(Eh)            E(eV) 
   0   1.0000     -24.846549      -676.1090 
   1   1.0000     -24.846546      -676.1089 
   2   1.0000     -24.846531      -676.1085 
   3   1.0000     -10.531556      -286.5782 
   4   1.0000      -1.465336       -39.8738 
   5   1.0000      -1.370430       -37.2913 
   6   1.0000      -1.370426       -37.2912 
   7   1.0000      -0.821021       -22.3411 
   8   1.0000      -0.721083       -19.6217 
   9   1.0000      -0.721076       -19.6215 
  10   1.0000      -0.664214       -18.0742 
  11   1.0000      -0.596102       -16.2208 
  12   1.0000      -0.596099       -16.2207 
  13   1.0000      -0.557058       -15.1583 
  14   1.0000      -0.557046       -15.1580 
  15   1.0000      -0.538230       -14.6460 
  16   0.0000      -0.042481        -1.1560 
  17   0.0000       0.082459         2.2438 
  18   0.0000       0.107922         2.9367 
  19   0.0000       0.107922         2.9367 
  20   0.0000       0.129371         3.5204 
  21   0.0000       0.162953         4.4342 
  22   0.0000       0.162953         4.4342 
  23   0.0000       0.179732         4.8908 
  24   0.0000       0.179732         4.8908 
  25   0.0000       0.196202         5.3389 
  26   0.0000       0.240749         6.5511 
  27   0.0000       0.255353         6.9485 
  28   0.0000       0.255361         6.9487 
  29   0.0000       0.286909         7.8072 
  30   0.0000       0.338162         9.2018 
  31   0.0000       0.379166        10.3176 
  32   0.0000       0.379181        10.3181 
  33   0.0000       0.388229        10.5643 
  34   0.0000       0.390855        10.6357 
  35   0.0000       0.390856        10.6357 
  36   0.0000       0.416291        11.3279 
  37   0.0000       0.416292        11.3279 
  38   0.0000       0.418940        11.3999 
  39   0.0000       0.488324        13.2880 
  40   0.0000       0.488325        13.2880 
  41   0.0000       0.499610        13.5951 
  42   0.0000       0.580793        15.8042 
  43   0.0000       0.642397        17.4805 
  44   0.0000       0.642398        17.4805 
  45   0.0000       0.683513        18.5993 
  46   0.0000       0.683518        18.5995 
  47   0.0000       0.709695        19.3118 
  48   0.0000       0.709699        19.3119 
  49   0.0000       0.713452        19.4140 
  50   0.0000       0.747371        20.3370 
  51   0.0000       0.752879        20.4869 
  52   0.0000       0.790894        21.5213 
  53   0.0000       0.790898        21.5214 
  54   0.0000       0.874297        23.7908 
  55   0.0000       0.888917        24.1886 
  56   0.0000       0.888920        24.1887 
  57   0.0000       0.958126        26.0719 
  58   0.0000       0.983814        26.7709 
  59   0.0000       0.983815        26.7710 
  60   0.0000       1.071197        29.1488 
  61   0.0000       1.071198        29.1488 
  62   0.0000       1.096768        29.8446 
  63   0.0000       1.168425        31.7945 
  64   0.0000       1.168429        31.7946 
  65   0.0000       1.170300        31.8455 
  66   0.0000       1.238721        33.7073 
  67   0.0000       1.261174        34.3183 
  68   0.0000       1.261184        34.3186 
  69   0.0000       1.308021        35.5931 
  70   0.0000       1.337540        36.3963 
  71   0.0000       1.337549        36.3966 
  72   0.0000       1.453560        39.5534 
  73   0.0000       1.453586        39.5541 
  74   0.0000       1.742001        47.4022 
  75   0.0000       2.132722        58.0343 
  76   0.0000       2.148793        58.4716 
  77   0.0000       2.148825        58.4725 
  78   0.0000       2.192085        59.6497 
  79   0.0000       2.225413        60.5566 
  80   0.0000       2.225420        60.5568 
  81   0.0000       2.263096        61.5820 
  82   0.0000       2.330260        63.4096 
  83   0.0000       2.341764        63.7226 
  84   0.0000       2.341766        63.7227 
  85   0.0000       2.504075        68.1393 
  86   0.0000       2.504096        68.1399 
  87   0.0000       2.641354        71.8749 
  88   0.0000       2.641372        71.8754 
  89   0.0000       2.703219        73.5583 
  90   0.0000       2.845462        77.4290 
  91   0.0000       2.963531        80.6418 
  92   0.0000       2.963547        80.6422 
  93   0.0000       3.204690        87.2040 
  94   0.0000       3.213758        87.4508 
  95   0.0000       3.218894        87.5906 
  96   0.0000       3.218944        87.5919 
  97   0.0000       3.336643        90.7947 
  98   0.0000       3.336667        90.7953 
  99   0.0000       3.407234        92.7156 
 100   0.0000       3.407258        92.7162 
 101   0.0000       3.423210        93.1503 
 102   0.0000       3.619996        98.5051 
 103   0.0000       3.620020        98.5057 
 104   0.0000       3.770721       102.6065 
 105   0.0000       3.894341       105.9704 
 106   0.0000       3.956085       107.6505 
 107   0.0000       3.956163       107.6527 
 108   0.0000       3.985924       108.4625 
 109   0.0000       4.078829       110.9906 
 110   0.0000       4.078833       110.9907 
 111   0.0000       4.167501       113.4035 
 112   0.0000       4.167551       113.4048 
 113   0.0000       4.205948       114.4497 
 114   0.0000       5.294071       144.0590 
 115   0.0000       5.398804       146.9089 
 116   0.0000       5.398846       146.9101 
 117   0.0000       6.908305       187.9845 
 118   0.0000       6.914605       188.1560 
 119   0.0000       6.914664       188.1576 
 120   0.0000       6.918619       188.2652 
 121   0.0000       6.918686       188.2670 
 122   0.0000       6.927574       188.5089 
 123   0.0000       6.928498       188.5340 
 124   0.0000       6.928542       188.5352 
 125   0.0000       6.929162       188.5521 
 126   0.0000       7.079709       192.6487 
 127   0.0000       7.079722       192.6490 
 128   0.0000       7.105048       193.3382 
 129   0.0000       7.236405       196.9126 
 130   0.0000       7.236448       196.9138 
 131   0.0000       7.248390       197.2387 
 132   0.0000       7.466660       203.1782 
 133   0.0000       7.466737       203.1802 
 134   0.0000       7.520931       204.6549 
 135   0.0000       7.692820       209.3323 
 136   0.0000       7.739459       210.6014 
 137   0.0000       7.739553       210.6040 
 138   0.0000       8.511062       231.5978 
 139   0.0000       8.511081       231.5983 
 140   0.0000       8.527517       232.0455 
 141   0.0000       8.588216       233.6972 
 142   0.0000       8.588235       233.6978 
 143   0.0000       8.621259       234.5964 
 144   0.0000       8.834549       240.4003 
 145   0.0000       8.834568       240.4008 
 146   0.0000       8.836112       240.4428 
 147   0.0000       8.920268       242.7328 
 148   0.0000       9.106639       247.8042 
 149   0.0000       9.106692       247.8057 
 150   0.0000       9.229142       251.1377 
 151   0.0000       9.406507       255.9641 
 152   0.0000       9.406530       255.9647 
 153   0.0000      22.818351       620.9189 
 154   0.0000      57.247287      1557.7779 
 155   0.0000      57.282193      1558.7277 
 156   0.0000      57.282197      1558.7278 

                    ********************************
                    * MULLIKEN POPULATION ANALYSIS *
                    ********************************

--------------------------------------------
MULLIKEN ATOMIC CHARGES AND SPIN POPULATIONS
--------------------------------------------
   0 C :    0.545186    0.801432
   1 F :   -0.181674    0.066185
   2 F :   -0.181756    0.066192
   3 F :   -0.181756    0.066192
Sum of atomic charges         :   -0.0000000
Sum of atomic spin populations:    1.0000000

-----------------------------------------------------
MULLIKEN REDUCED ORBITAL CHARGES AND SPIN POPULATIONS
-----------------------------------------------------
CHARGE
  0 C s       :     3.188533  s :     3.188533
      pz      :     0.876468  p :     1.920633
      px      :     0.522087
      py      :     0.522079
      dz2     :     0.052608  d :     0.304721
      dxz     :     0.049838
      dyz     :     0.049847
      dx2y2   :     0.076220
      dxy     :     0.076208
      f0      :     0.001905  f :     0.040927
      f+1     :     0.005390
      f-1     :     0.005391
      f+2     :     0.006101
      f-2     :     0.006101
      f+3     :     0.004798
      f-3     :     0.011242
  1 F s       :     3.954128  s :     3.954128
      pz      :     1.801570  p :     5.216355
      px      :     1.493838
      py      :     1.920947
      dz2     :     0.000608  d :     0.010382
      dxz     :     0.006067
      dyz     :     0.000688
      dx2y2   :     0.005092
      dxy     :    -0.002073
      f0      :     0.000081  f :     0.000809
      f+1     :     0.000159
      f-1     :     0.000004
      f+2     :     0.000187
      f-2     :     0.000044
      f+3     :     0.000197
      f-3     :     0.000136
  2 F s       :     3.954187  s :     3.954187
      pz      :     1.801581  p :     5.216382
      px      :     1.814160
      py      :     1.600640
      dz2     :     0.000606  d :     0.010379
      dxz     :     0.002033
      dyz     :     0.004724
      dx2y2   :    -0.000282
      dxy     :     0.003298
      f0      :     0.000081  f :     0.000809
      f+1     :     0.000043
      f-1     :     0.000120
      f+2     :     0.000080
      f-2     :     0.000151
      f+3     :     0.000197
      f-3     :     0.000136
  3 F s       :     3.954186  s :     3.954186
      pz      :     1.801581  p :     5.216382
      px      :     1.814160
      py      :     1.600641
      dz2     :     0.000606  d :     0.010379
      dxz     :     0.002033
      dyz     :     0.004724
      dx2y2   :    -0.000282
      dxy     :     0.003298
      f0      :     0.000081  f :     0.000809
      f+1     :     0.000043
      f-1     :     0.000120
      f+2     :     0.000080
      f-2     :     0.000151
      f+3     :     0.000197
      f-3     :     0.000136

SPIN
  0 C s       :     0.262360  s :     0.262360
      pz      :     0.505228  p :     0.527201
      px      :     0.010974
      py      :     0.011000
      dz2     :     0.017349  d :     0.012638
      dxz     :    -0.001552
      dyz     :    -0.001550
      dx2y2   :    -0.000807
      dxy     :    -0.000803
      f0      :    -0.000195  f :    -0.000767
      f+1     :    -0.000441
      f-1     :    -0.000441
      f+2     :    -0.000142
      f-2     :    -0.000141
      f+3     :     0.000538
      f-3     :     0.000056
  1 F s       :     0.003338  s :     0.003338
      pz      :     0.064411  p :     0.061190
      px      :    -0.002102
      py      :    -0.001119
      dz2     :     0.000179  d :     0.001620
      dxz     :     0.000693
      dyz     :    -0.000005
      dx2y2   :     0.000795
      dxy     :    -0.000041
      f0      :    -0.000003  f :     0.000036
      f+1     :     0.000026
      f-1     :    -0.000000
      f+2     :     0.000002
      f-2     :     0.000002
      f+3     :     0.000009
      f-3     :     0.000001
  2 F s       :     0.003343  s :     0.003343
      pz      :     0.064425  p :     0.061192
      px      :    -0.001371
      py      :    -0.001862
      dz2     :     0.000178  d :     0.001621
      dxz     :     0.000169
      dyz     :     0.000519
      dx2y2   :     0.000168
      dxy     :     0.000587
      f0      :    -0.000003  f :     0.000036
      f+1     :     0.000006
      f-1     :     0.000020
      f+2     :     0.000002
      f-2     :     0.000002
      f+3     :     0.000008
      f-3     :     0.000001
  3 F s       :     0.003343  s :     0.003343
      pz      :     0.064425  p :     0.061192
      px      :    -0.001371
      py      :    -0.001862
      dz2     :     0.000178  d :     0.001621
      dxz     :     0.000169
      dyz     :     0.000519
      dx2y2   :     0.000168
      dxy     :     0.000587
      f0      :    -0.000003  f :     0.000036
      f+1     :     0.000006
      f-1     :     0.000020
      f+2     :     0.000002
      f-2     :     0.000002
      f+3     :     0.000008
      f-3     :     0.000001


                     *******************************
                     * LOEWDIN POPULATION ANALYSIS *
                     *******************************

-------------------------------------------
LOEWDIN ATOMIC CHARGES AND SPIN POPULATIONS
-------------------------------------------
   0 C :   -0.392917    0.617477
   1 F :    0.130974    0.127520
   2 F :    0.130971    0.127501
   3 F :    0.130972    0.127501

----------------------------------------------------
LOEWDIN REDUCED ORBITAL CHARGES AND SPIN POPULATIONS
----------------------------------------------------
CHARGE
  0 C s       :     2.690027  s :     2.690027
      pz      :     0.809875  p :     2.194191
      px      :     0.692158
      py      :     0.692158
      dz2     :     0.174524  d :     1.242525
      dxz     :     0.200505
      dyz     :     0.200508
      dx2y2   :     0.333493
      dxy     :     0.333495
      f0      :     0.015160  f :     0.266174
      f+1     :     0.026674
      f-1     :     0.026675
      f+2     :     0.045119
      f-2     :     0.045119
      f+3     :     0.044953
      f-3     :     0.062475
  1 F s       :     3.561238  s :     3.561238
      pz      :     1.723438  p :     5.097319
      px      :     1.588791
      py      :     1.785090
      dz2     :     0.032081  d :     0.208535
      dxz     :     0.063239
      dyz     :     0.006512
      dx2y2   :     0.043933
      dxy     :     0.062770
      f0      :     0.000181  f :     0.001934
      f+1     :     0.000428
      f-1     :     0.000012
      f+2     :     0.000465
      f-2     :     0.000091
      f+3     :     0.000393
      f-3     :     0.000364
  2 F s       :     3.561238  s :     3.561238
      pz      :     1.723431  p :     5.097324
      px      :     1.736013
      py      :     1.637880
      dz2     :     0.032081  d :     0.208533
      dxz     :     0.020694
      dyz     :     0.049057
      dx2y2   :     0.058059
      dxy     :     0.048642
      f0      :     0.000181  f :     0.001934
      f+1     :     0.000116
      f-1     :     0.000324
      f+2     :     0.000185
      f-2     :     0.000371
      f+3     :     0.000393
      f-3     :     0.000364
  3 F s       :     3.561238  s :     3.561238
      pz      :     1.723431  p :     5.097324
      px      :     1.736013
      py      :     1.637880
      dz2     :     0.032081  d :     0.208533
      dxz     :     0.020694
      dyz     :     0.049057
      dx2y2   :     0.058059
      dxy     :     0.048642
      f0      :     0.000181  f :     0.001934
      f+1     :     0.000116
      f-1     :     0.000324
      f+2     :     0.000185
      f-2     :     0.000371
      f+3     :     0.000393
      f-3     :     0.000364

SPIN
  0 C s       :     0.139006  s :     0.139006
      pz      :     0.410036  p :     0.421052
      px      :     0.005493
      py      :     0.005523
      dz2     :     0.058216  d :     0.049437
      dxz     :    -0.003766
      dyz     :    -0.003766
      dx2y2   :    -0.000623
      dxy     :    -0.000624
      f0      :    -0.000089  f :     0.007982
      f+1     :    -0.000229
      f-1     :    -0.000229
      f+2     :    -0.000202
      f-2     :    -0.000202
      f+3     :     0.008931
      f-3     :     0.000003
  1 F s       :     0.015233  s :     0.015233
      pz      :     0.072925  p :     0.078513
      px      :     0.006282
      py      :    -0.000694
      dz2     :     0.006863  d :     0.033398
      dxz     :     0.025364
      dyz     :    -0.000129
      dx2y2   :     0.001283
      dxy     :     0.000018
      f0      :     0.000013  f :     0.000376
      f+1     :     0.000232
      f-1     :     0.000000
      f+2     :     0.000110
      f-2     :     0.000001
      f+3     :     0.000017
      f-3     :     0.000003
  2 F s       :     0.015232  s :     0.015232
      pz      :     0.072930  p :     0.078497
      px      :     0.001043
      py      :     0.004523
      dz2     :     0.006863  d :     0.033397
      dxz     :     0.006244
      dyz     :     0.018990
      dx2y2   :     0.000334
      dxy     :     0.000967
      f0      :     0.000013  f :     0.000376
      f+1     :     0.000058
      f-1     :     0.000174
      f+2     :     0.000028
      f-2     :     0.000082
      f+3     :     0.000017
      f-3     :     0.000003
  3 F s       :     0.015232  s :     0.015232
      pz      :     0.072930  p :     0.078497
      px      :     0.001043
      py      :     0.004523
      dz2     :     0.006863  d :     0.033397
      dxz     :     0.006244
      dyz     :     0.018990
      dx2y2   :     0.000334
      dxy     :     0.000967
      f0      :     0.000013  f :     0.000376
      f+1     :     0.000058
      f-1     :     0.000174
      f+2     :     0.000028
      f-2     :     0.000082
      f+3     :     0.000017
      f-3     :     0.000003


                      *****************************
                      * MAYER POPULATION ANALYSIS *
                      *****************************

  NA   - Mulliken gross atomic population
  ZA   - Total nuclear charge
  QA   - Mulliken gross atomic charge
  VA   - Mayer's total valence
  BVA  - Mayer's bonded valence
  FA   - Mayer's free valence

  ATOM       NA         ZA         QA         VA         BVA        FA
  0 C      5.4548     6.0000     0.5452     3.8040     3.1588     0.6452
  1 F      9.1817     9.0000    -0.1817     1.0678     1.0641     0.0037
  2 F      9.1818     9.0000    -0.1818     1.0677     1.0640     0.0037
  3 F      9.1818     9.0000    -0.1818     1.0677     1.0640     0.0037

  Mayer bond orders larger than 0.100000
B(  0-C ,  1-F ) :   1.0530 B(  0-C ,  2-F ) :   1.0529 B(  0-C ,  3-F ) :   1.0529 


-------
TIMINGS
-------

Total SCF time: 0 days 0 hours 0 min 14 sec 

Total time                  ....      14.488 sec
Sum of individual times     ....      13.486 sec  ( 93.1%)

Fock matrix formation       ....      11.271 sec  ( 77.8%)
  Split-RI-J                ....       3.011 sec  ( 26.7% of F)
  Chain of spheres X        ....       2.921 sec  ( 25.9% of F)
  XC integration            ....       2.087 sec  ( 18.5% of F)
    Basis function eval.    ....       0.122 sec  (  5.8% of XC)
    Density eval.           ....       0.159 sec  (  7.6% of XC)
    XC-Functional eval.     ....       0.067 sec  (  3.2% of XC)
    XC-Potential eval.      ....       0.312 sec  ( 14.9% of XC)
Diagonalization             ....       0.348 sec  (  2.4%)
Density matrix formation    ....       0.018 sec  (  0.1%)
Population analysis         ....       0.143 sec  (  1.0%)
Initial guess               ....       0.523 sec  (  3.6%)
Orbital Transformation      ....       0.000 sec  (  0.0%)
Orbital Orthonormalization  ....       0.000 sec  (  0.0%)
DIIS solution               ....       0.513 sec  (  3.5%)
Grid generation             ....       0.669 sec  (  4.6%)

Maximum memory used throughout the entire SCF-calculation: 63.2 MB


-------------------------------------------------------------------------------
                          DFT DISPERSION CORRECTION                            
                                                                               
                              DFTD3 V3.1  Rev 1                                
                              USING zero damping                               
-------------------------------------------------------------------------------
The omegaB97X-D3 functional is recognized. Fit by Chai et al.
Active option DFTDOPT                   ...         3   

molecular C6(AA) [au] = 165.704963 


            DFT-D V3
 parameters
 s6 scaling factor         :     1.0000 
 rs6 scaling factor        :     1.2810 
 s8 scaling factor         :     1.0000 
 rs8 scaling factor        :     1.0940 
 Damping factor alpha6     :    14.0000 
 Damping factor alpha8     :    16.0000 
 ad hoc parameters k1-k3   :    16.0000     1.3333    -4.0000 

 Edisp/kcal,au: -0.044333586909  -0.000070650060 
 E6   /kcal   :  -0.005653560 
 E8   /kcal   :  -0.038680027 
 % E8         :  87.247681323 

-------------------------   ----------------
Dispersion correction           -0.000070650
-------------------------   ----------------


-------------------------   --------------------
FINAL SINGLE POINT ENERGY      -337.629243885020
-------------------------   --------------------



           ************************************************************
           *        Program running with 18 parallel MPI-processes    *
           *              working on a common directory               *
           ************************************************************
------------------------------------------------------------------------------
                         ORCA SCF GRADIENT CALCULATION
------------------------------------------------------------------------------

 ... reading COSX grid (gridx3)
Gradient of the Kohn-Sham DFT energy:
Kohn-Sham wavefunction type      ... UKS
Hartree-Fock exchange scaling    ...    0.196
Number of operators              ...    2
Number of atoms                  ...    4
Basis set dimensions             ...  157
Integral neglect threshold       ... 2.5e-11
Integral primitive cutoff        ... 2.5e-12
SHARK Integral package           ... ON

Nuc. rep. gradient       (SHARK) ... done (  0.0 sec)
HCore & Overlap gradient (SHARK) ... done (  0.0 sec)
RI-J gradient            (SHARK) ... done (  0.7 sec)
COSX-gradient                    ... done (  0.5 sec)
Exchange-correlation gradient    ... done
Dispersion correction            ... done

------------------
CARTESIAN GRADIENT
------------------

WARNING: THERE ARE 3 CONSTRAINED CARTESIAN COORDINATES
   1   C   :    0.000043872    0.000000028    0.037610890
   2   F   :   -0.012007581    0.000000064   -0.012346200
   3   F   :    0.006347531   -0.010708134   -0.012810388
   4   F   :    0.006347431    0.010707869   -0.012810148

Difference to translation invariance:
           :    0.0007312538   -0.0000001725   -0.0003558462

Difference to rotation invariance:
           :   -0.0000006589   -0.0016867920    0.0000002572

Norm of the cartesian gradient     ...    0.0484695901
RMS gradient                       ...    0.0139919654
MAX gradient                       ...    0.0376108899

-------
TIMINGS
-------

Total SCF gradient time            ...        1.707 sec

One electron gradient       ....       0.013 sec  (  0.8%)
RI-J Coulomb gradient       ....       0.675 sec  ( 39.5%)
COSX gradient               ....       0.464 sec  ( 27.2%)
XC gradient                 ....       0.181 sec  ( 10.6%)

Maximum memory used throughout the entire SCFGRAD-calculation: 37.2 MB
------------------------------------------------------------------------------
                         ORCA GEOMETRY RELAXATION STEP
------------------------------------------------------------------------------

Reading the OPT-File                    .... done
Getting information on internals        .... done
Copying old internal coords+grads       .... done
Making the new internal coordinates     .... (new redundants).... done
Validating the new internal coordinates .... (new redundants).... done
Calculating the B-matrix                .... done
Calculating the G,G- and P matrices     .... done
Transforming gradient to internals      .... done
Projecting the internal gradient        .... done
Number of atoms                         ....   4
Number of internal coordinates          ....   7
Current Energy                          ....  -337.629243885 Eh
Current gradient norm                   ....     0.048469590 Eh/bohr
Maximum allowed component of the step   ....  0.300
Current trust radius                    ....  0.300
Evaluating the initial hessian          ....  (Almloef) done
Projecting the Hessian                  .... done
Forming the augmented Hessian           .... done
Diagonalizing the augmented Hessian     .... done
Last element of RFO vector              ....  0.999843130
Lowest eigenvalues of augmented Hessian:
 -0.000214998  0.684895726  0.684895726  0.685110723 1000.000000000
Length of the computed step             ....  0.017714813
The final length of the internal step   ....  0.017714813
Converting the step to cartesian space:
 Initial RMS(Int)=    0.0066955699
Transforming coordinates:
 Iter   0:  RMS(Cart)=    0.0048634871 RMS(Int)=    0.0066955700
 Iter   1:  RMS(Cart)=    0.0000000002 RMS(Int)=    0.0000000004
Imposing constraints:
 Iter   0:  RMS(Cart)=    0.0000000006 RMS(Int)=    0.0000000013
CONVERGED
done
Storing new coordinates                 .... done

                                .--------------------.
          ----------------------|Geometry convergence|-------------------------
          Item                value                   Tolerance       Converged
          ---------------------------------------------------------------------
          RMS gradient        0.0045872067            0.0001000000      NO
          MAX gradient        0.0070462247            0.0003000000      NO
          RMS step            0.0066955699            0.0020000000      NO
          MAX step            0.0102847969            0.0040000000      NO
          ........................................................
          Max(Bonds)      0.0054      Max(Angles)    0.00
          Max(Dihed)        0.00      Max(Improp)    0.00
          ---------------------------------------------------------------------

The optimization has not yet converged - more geometry cycles are needed


    ---------------------------------------------------------------------------
                         Redundant Internal Coordinates
                            (Angstroem and degrees)

        Definition                    Value    dE/dq     Step     New-Value
    ----------------------------------------------------------------------------
     1. B(F   1,C   0)                1.3150 -0.006928  0.0054    1.3204   
     2. B(F   2,C   0)                1.3150 -0.007046  0.0054    1.3204   
     3. B(F   3,C   0)                1.3150 -0.007046  0.0054    1.3204   
     4. A(F   2,C   0,F   3)          108.00 -0.025585    0.00    108.00 C 
     5. A(F   1,C   0,F   2)          108.00 -0.009871    0.00    108.00 C 
     6. A(F   1,C   0,F   3)          108.00 -0.009871   -0.00    108.00 C 
     7. I(F   1,F   3,F   2,C   0)     58.28  0.029658    0.00     58.28   
    ----------------------------------------------------------------------------

         *************************************************************
         *                GEOMETRY OPTIMIZATION CYCLE   2            *
         *************************************************************
---------------------------------
CARTESIAN COORDINATES (ANGSTROEM)
---------------------------------
  C      0.000026   -0.000000    0.001448
  F      1.233456   -0.000000   -0.469697
  F     -0.616741    1.068260   -0.469707
  F     -0.616741   -1.068260   -0.469707

----------------------------
CARTESIAN COORDINATES (A.U.)
----------------------------
  NO LB      ZA    FRAG     MASS         X           Y           Z
   0 C     6.0000    0    12.011    0.000048   -0.000000    0.002737
   1 F     9.0000    0    18.998    2.330893   -0.000000   -0.887599
   2 F     9.0000    0    18.998   -1.165471    2.018720   -0.887618
   3 F     9.0000    0    18.998   -1.165471   -2.018719   -0.887618

--------------------------------
INTERNAL COORDINATES (ANGSTROEM)
--------------------------------
 C      0   0   0     0.000000000000     0.00000000     0.00000000
 F      1   0   0     1.320351384131     0.00000000     0.00000000
 F      1   2   0     1.320442480133   107.99999997     0.00000000
 F      1   2   3     1.320442346317   107.99999997   116.56505104

---------------------------
INTERNAL COORDINATES (A.U.)
---------------------------
 C      0   0   0     0.000000000000     0.00000000     0.00000000
 F      1   0   0     2.495102516551     0.00000000     0.00000000
 F      1   2   0     2.495274663048   107.99999997     0.00000000
 F      1   2   3     2.495274410171   107.99999997   116.56505104



           ************************************************************
           *        Program running with 18 parallel MPI-processes    *
           *              working on a common directory               *
           ************************************************************
------------------------------------------------------------------------------
                   ___                                                        
                  /   \      - P O W E R E D   B Y -                         
                 /     \                                                     
                 |  |  |   _    _      __       _____    __    __             
                 |  |  |  | |  | |    /  \     |  _  \  |  |  /  |          
                  \  \/   | |  | |   /    \    | | | |  |  | /  /          
                 / \  \   | |__| |  /  /\  \   | |_| |  |  |/  /          
                |  |  |   |  __  | /  /__\  \  |    /   |      \           
                |  |  |   | |  | | |   __   |  |    \   |  |\   \          
                \     /   | |  | | |  |  |  |  | |\  \  |  | \   \       
                 \___/    |_|  |_| |__|  |__|  |_| \__\ |__|  \__/        
                                                                              
                      - O R C A' S   B I G   F R I E N D -                    
                                      &                                       
                       - I N T E G R A L  F E E D E R -                       
                                                                              
 v1 FN, 2020, v2 2021                                                         
------------------------------------------------------------------------------


Reading SHARK input file /beegfs/scratch/ispackman/PFAS_EPR_calcs/benchmark/JChemEd_CF3_radical/CF3_radical_108.0_degrees_IN-PROGRESS/CF3_radical_108.0_degrees.SHARKINP.tmp ... ok
----------------------
SHARK INTEGRAL PACKAGE
----------------------

Number of atoms                             ...      4
Number of basis functions                   ...    157
Number of shells                            ...     55
Maximum angular momentum                    ...      3
Integral batch strategy                     ... SHARK/LIBINT Hybrid
RI-J (if used) integral strategy            ... SPLIT-RIJ (Revised 2003 algorithm where possible)
Printlevel                                  ...      1
Contraction scheme used                     ... SEGMENTED contraction
Coulomb Range Separation                    ... NOT USED
Exchange Range Separation                   ... Long Range
   Mu parameter                             ...  0.250000
   Scaling (regular/separated)              ...  0.195728  0.804272
Finite Nucleus Model                        ... NOT USED
Auxiliary Coulomb fitting basis             ... AVAILABLE
   # of basis functions in Aux-J            ...    196
   # of shells in Aux-J                     ...     60
   Maximum angular momentum in Aux-J        ...      4
Auxiliary J/K fitting basis                 ... NOT available
Auxiliary Correlation fitting basis         ... NOT available
Auxiliary 'external' fitting basis          ... NOT available
Integral threshold                          ...     2.500000e-11
Primitive cut-off                           ...     2.500000e-12
Primitive pair pre-selection threshold      ...     2.500000e-12

Calculating pre-screening integrals         ... done (  0.0 sec) Dimension = 55
Organizing shell pair data                  ... done (  0.0 sec)
Shell pair information
Total number of shell pairs                 ...      1540
Shell pairs after pre-screening             ...      1504
Total number of primitive shell pairs       ...      4274
Primitive shell pairs kept                  ...      3545
          la=0 lb=0:    282 shell pairs
          la=1 lb=0:    354 shell pairs
          la=1 lb=1:    120 shell pairs
          la=2 lb=0:    276 shell pairs
          la=2 lb=1:    180 shell pairs
          la=2 lb=2:     78 shell pairs
          la=3 lb=0:     96 shell pairs
          la=3 lb=1:     60 shell pairs
          la=3 lb=2:     48 shell pairs
          la=3 lb=3:     10 shell pairs

Calculating one electron integrals          ... done (  0.0 sec)
Calculating RI/J V-Matrix + Cholesky decomp.... done (  0.0 sec)
Calculating Nuclear repulsion               ... done (  0.0 sec) ENN=    125.112258732488 Eh

SHARK setup successfully completed in   0.3 seconds

Maximum memory used throughout the entire GTOINT-calculation: 15.2 MB


           ************************************************************
           *        Program running with 18 parallel MPI-processes    *
           *              working on a common directory               *
           ************************************************************

Diagonalization of the overlap matrix:
Smallest eigenvalue                        ... 3.365e-04
Time for diagonalization                   ...    0.008 sec
Threshold for overlap eigenvalues          ... 1.000e-08
Number of eigenvalues below threshold      ... 0
Time for construction of square roots      ...    0.017 sec
Total time needed                          ...    0.026 sec

-------------------
DFT GRID GENERATION
-------------------

General Integration Accuracy     IntAcc      ... 4.388
Radial Grid Type                 RadialGrid  ... OptM3 with GC (2021)
Angular Grid (max. ang.)         AngularGrid ... 4 (Lebedev-302)
Angular grid pruning method      GridPruning ... 4 (adaptive)
Weight generation scheme         WeightScheme... Becke
Basis function cutoff            BFCut       ... 1.0000e-11
Integration weight cutoff        WCut        ... 1.0000e-14
Angular grids for H and He will be reduced by one unit
Partially contracted basis set               ... off
Rotationally invariant grid construction     ... off

Total number of grid points                  ...    25787
Total number of batches                      ...      405
Average number of points per batch           ...       63
Average number of grid points per atom       ...     6447
Time for grid setup =    0.192 sec

--------------------
COSX GRID GENERATION
--------------------

GRIDX 1
-------
General Integration Accuracy     IntAcc      ... 3.816
Radial Grid Type                 RadialGrid  ... OptM3 with GC (2021)
Angular Grid (max. ang.)         AngularGrid ... 1 (Lebedev-50)
Angular grid pruning method      GridPruning ... 4 (adaptive)
Weight generation scheme         WeightScheme... Becke
Basis function cutoff            BFCut       ... 1.0000e-11
Integration weight cutoff        WCut        ... 1.0000e-14
Angular grids for H and He will be reduced by one unit
Partially contracted basis set               ... on
Rotationally invariant grid construction     ... off

Total number of grid points                  ...     3270
Total number of batches                      ...       53
Average number of points per batch           ...       61
Average number of grid points per atom       ...      818
UseSFitting                                  ... on

GRIDX 2
-------
General Integration Accuracy     IntAcc      ... 4.020
Radial Grid Type                 RadialGrid  ... OptM3 with GC (2021)
Angular Grid (max. ang.)         AngularGrid ... 2 (Lebedev-110)
Angular grid pruning method      GridPruning ... 4 (adaptive)
Weight generation scheme         WeightScheme... Becke
Basis function cutoff            BFCut       ... 1.0000e-11
Integration weight cutoff        WCut        ... 1.0000e-14
Angular grids for H and He will be reduced by one unit
Partially contracted basis set               ... on
Rotationally invariant grid construction     ... off

Total number of grid points                  ...     9124
Total number of batches                      ...      145
Average number of points per batch           ...       62
Average number of grid points per atom       ...     2281
UseSFitting                                  ... on

GRIDX 3
-------
General Integration Accuracy     IntAcc      ... 4.338
Radial Grid Type                 RadialGrid  ... OptM3 with GC (2021)
Angular Grid (max. ang.)         AngularGrid ... 3 (Lebedev-194)
Angular grid pruning method      GridPruning ... 4 (adaptive)
Weight generation scheme         WeightScheme... Becke
Basis function cutoff            BFCut       ... 1.0000e-11
Integration weight cutoff        WCut        ... 1.0000e-14
Angular grids for H and He will be reduced by one unit
Partially contracted basis set               ... on
Rotationally invariant grid construction     ... off

Total number of grid points                  ...    19674
Total number of batches                      ...      309
Average number of points per batch           ...       63
Average number of grid points per atom       ...     4918
[...]
  VA   - Mayer's total valence
  BVA  - Mayer's bonded valence
  FA   - Mayer's free valence

  ATOM       NA         ZA         QA         VA         BVA        FA
  0 C      5.4601     6.0000     0.5399     3.8027     3.1588     0.6439
  1 F      9.1799     9.0000    -0.1799     1.0695     1.0657     0.0038
  2 F      9.1800     9.0000    -0.1800     1.0693     1.0655     0.0038
  3 F      9.1800     9.0000    -0.1800     1.0693     1.0655     0.0038

  Mayer bond orders larger than 0.100000
B(  0-C ,  1-F ) :   1.0530 B(  0-C ,  2-F ) :   1.0529 B(  0-C ,  3-F ) :   1.0529 


-------
TIMINGS
-------

Total SCF time: 0 days 0 hours 0 min 4 sec 

Total time                  ....       4.463 sec
Sum of individual times     ....       3.794 sec  ( 85.0%)

Fock matrix formation       ....       2.976 sec  ( 66.7%)
  Split-RI-J                ....       0.474 sec  ( 15.9% of F)
  Chain of spheres X        ....       1.389 sec  ( 46.7% of F)
  XC integration            ....       0.522 sec  ( 17.5% of F)
    Basis function eval.    ....       0.039 sec  (  7.4% of XC)
    Density eval.           ....       0.048 sec  (  9.2% of XC)
    XC-Functional eval.     ....       0.020 sec  (  3.8% of XC)
    XC-Potential eval.      ....       0.069 sec  ( 13.1% of XC)
Diagonalization             ....       0.107 sec  (  2.4%)
Density matrix formation    ....       0.014 sec  (  0.3%)
Population analysis         ....       0.115 sec  (  2.6%)
Initial guess               ....       0.020 sec  (  0.4%)
Orbital Transformation      ....       0.000 sec  (  0.0%)
Orbital Orthonormalization  ....       0.012 sec  (  0.3%)
DIIS solution               ....       0.052 sec  (  1.2%)
Grid generation             ....       0.511 sec  ( 11.5%)

Maximum memory used throughout the entire SCF-calculation: 63.1 MB


-------------------------------------------------------------------------------
                          DFT DISPERSION CORRECTION                            
                                                                               
                              DFTD3 V3.1  Rev 1                                
                              USING zero damping                               
-------------------------------------------------------------------------------
The omegaB97X-D3 functional is recognized. Fit by Chai et al.
Active option DFTDOPT                   ...         3   

molecular C6(AA) [au] = 165.720857 


            DFT-D V3
 parameters
 s6 scaling factor         :     1.0000 
 rs6 scaling factor        :     1.2810 
 s8 scaling factor         :     1.0000 
 rs8 scaling factor        :     1.0940 
 Damping factor alpha6     :    14.0000 
 Damping factor alpha8     :    16.0000 
 ad hoc parameters k1-k3   :    16.0000     1.3333    -4.0000 

 Edisp/kcal,au: -0.046099621001  -0.000073464414 
 E6   /kcal   :  -0.005882855 
 E8   /kcal   :  -0.040216766 
 % E8         :  87.238822084 

-------------------------   ----------------
Dispersion correction           -0.000073464
-------------------------   ----------------


-------------------------   --------------------
FINAL SINGLE POINT ENERGY      -337.629377880298
-------------------------   --------------------

                                *** OPTIMIZATION RUN DONE ***

                            ***************************************
                            *     ORCA property calculations      *
                            ***************************************

                                    ---------------------
                                    Active property flags
                                    ---------------------
   (+) Dipole Moment


------------------------------------------------------------------------------
                       ORCA ELECTRIC PROPERTIES CALCULATION
------------------------------------------------------------------------------

Dipole Moment Calculation                       ... on
Quadrupole Moment Calculation                   ... off
Polarizability Calculation                      ... off
GBWName                                         ... /beegfs/scratch/ispackman/PFAS_EPR_calcs/benchmark/JChemEd_CF3_radical/CF3_radical_108.0_degrees_IN-PROGRESS/CF3_radical_108.0_degrees.gbw
Electron density                                ... /beegfs/scratch/ispackman/PFAS_EPR_calcs/benchmark/JChemEd_CF3_radical/CF3_radical_108.0_degrees_IN-PROGRESS/CF3_radical_108.0_degrees.scfp
The origin for moment calculation is the CENTER OF MASS  = (-0.000009,  0.000000 -0.732696)

-------------
DIPOLE MOMENT
-------------
                                X             Y             Z
Electronic contribution:      0.00027      -0.00000      -0.02431
Nuclear contribution   :      0.00003      -0.00000       0.22815
                        -----------------------------------------
Total Dipole Moment    :      0.00030      -0.00000       0.20384
                        -----------------------------------------
Magnitude (a.u.)       :      0.20384
Magnitude (Debye)      :      0.51811



--------------------
Rotational spectrum 
--------------------
 
Rotational constants in cm-1:     0.369397     0.369340     0.194064 
Rotational constants in MHz : 11074.236751 11072.527512  5817.899459 

 Dipole components along the rotational axes: 
x,y,z [a.u.] :    -0.000000    -0.000300     0.203835 
x,y,z [Debye]:    -0.000000    -0.000761     0.518108 

 


           ************************************************************
           *        Program running with 18 parallel MPI-processes    *
           *              working on a common directory               *
           ************************************************************

-------------------------------------------------------------------------------
                               ORCA SCF HESSIAN
-------------------------------------------------------------------------------

                   --------- SHARK INITIALIZATION DONE ---------

Hessian of the Kohn-Sham DFT energy:
Kohn-Sham wavefunction type                      ... UKS
Hartree-Fock exchange scaling                    ...    0.196
Number of operators                              ...    2
Number of atoms                                  ...    4
Basis set dimensions                             ...  157
Integral neglect threshold                       ... 2.5e-11
Integral primitive cutoff                        ... 2.5e-12

Setting up DFT Hessian calculations              ... 

HESS GRID
---------

General Integration Accuracy     IntAcc      ... 4.629
Radial Grid Type                 RadialGrid  ... OptM3 with GC (2021)
Angular Grid (max. ang.)         AngularGrid ... 5 (Lebedev-434)
Angular grid pruning method      GridPruning ... 4 (adaptive)
Weight generation scheme         WeightScheme... Becke
Basis function cutoff            BFCut       ... 1.0000e-11
Integration weight cutoff        WCut        ... 1.0000e-14
Angular grids for H and He will be reduced by one unit
Partially contracted basis set               ... off
Rotationally invariant grid construction     ... off

Total number of grid points                  ...    39957
Total number of batches                      ...      626
Average number of points per batch           ...       63
Average number of grid points per atom       ...     9989

Building densities                               ... done   (      0.0 sec)
Calculating rho(r) on the grid                   ... done   (      0.1 sec)
Building xc-kernel on the grid                   ... done   (      0.1 sec)
                                                     done   (      0.6 sec)

Nuclear repulsion Hessian  (SHARK)               ... done   (      0.0 sec)

----------------------------------------------
Forming right-hand sides of CP-SCF equations     ...
----------------------------------------------
One electron integral derivatives  (SHARK)       ... done   (      0.0 sec)
Transforming the overlap derivative matrices     ... done   (      0.0 sec)
Making the Q(x) pseudodensities                  ... done   (      0.0 sec)
Adding the E*S(x)*S(y) terms to the Hessian      ... done   (      0.0 sec)
Calculating energy weighted overlap derivatives  ... done   (      0.0 sec)
Two electron integral derivatives (SHARK-RI)     ... done   (      2.4 sec)
Exchange-correlation integral derivatives        ... done   (      2.3 sec)
tr(F(y)Q(x)) contribution to the Hessian         ... done   (      0.0 sec)
Response fock operator R(S(x)) (SHARK-RIJCOSX)   ... done   (      0.9 sec)
XC Response fock operator R(S(x))                ... done   (      0.4 sec)
tr(F(y)S(x)) contribution to the Hessian         ... done   (      0.0 sec)
Transforming and finalizing RHSs                 ... done   (      0.0 sec)

----------------------------------------------
Solving the CP-SCF equations (RIJCOSX)           ...
----------------------------------------------
     CP-SCF ITERATION   0:   1.6016e-01 (   0.4 sec   0/ 12 done)
     CP-SCF ITERATION   1:   4.3201e-02 (   0.5 sec   0/ 12 done)
     CP-SCF ITERATION   2:   1.3502e-02 (   0.5 sec   0/ 12 done)
     CP-SCF ITERATION   3:   3.6569e-03 (   0.4 sec   0/ 12 done)
     CP-SCF ITERATION   4:   1.1878e-03 (   0.4 sec   0/ 12 done)
     CP-SCF ITERATION   5:   4.9882e-04 (   0.5 sec   1/ 12 done)
     CP-SCF ITERATION   6:   1.3646e-04 (   0.4 sec   9/ 12 done)
     CP-SCF ITERATION   7:   2.9654e-05 (   0.4 sec  12/ 12 done)
                    *** THE CP-SCF HAS CONVERGED ***

                                                 ... done   (      3.8 sec)
Forming perturbed density Hessian contributions  ... done   (      0.0 sec)
2nd integral derivative contribs (SHARK-RI)      ... done   (      6.5 sec)
Exchange-correlation Hessian                     ... done   (      0.8 sec)
Dispersion correction in the Hessian             ... done   (      0.1 sec)
Dipole derivatives                               ... (center of mass: -0.000009,  0.000000 -0.732696)done   (      0.2 sec)

Total SCF Hessian time: 0 days 0 hours 0 min 18 sec 

Writing the Hessian file to the disk             ... done


Maximum memory used throughout the entire SCFHESS-calculation: 144.2 MB

-----------------------
VIBRATIONAL FREQUENCIES
-----------------------

Scaling factor for frequencies =  1.000000000  (already applied!)

   0:         0.00 cm**-1
   1:         0.00 cm**-1
   2:         0.00 cm**-1
   3:         0.00 cm**-1
   4:         0.00 cm**-1
   5:         0.00 cm**-1
   6:       532.50 cm**-1
   7:       532.73 cm**-1
   8:       731.62 cm**-1
   9:      1117.07 cm**-1
  10:      1217.88 cm**-1
  11:      1218.04 cm**-1


------------
NORMAL MODES
------------

These modes are the Cartesian displacements weighted by the diagonal matrix
M(i,i)=1/sqrt(m[i]) where m[i] is the mass of the displaced atom
Thus, these vectors are normalized but *not* orthogonal

                  0          1          2          3          4          5    
      0       0.000000   0.000000   0.000000   0.000000   0.000000   0.000000
      1       0.000000   0.000000   0.000000   0.000000   0.000000   0.000000
      2       0.000000   0.000000   0.000000   0.000000   0.000000   0.000000
      3       0.000000   0.000000   0.000000   0.000000   0.000000   0.000000
      4       0.000000   0.000000   0.000000   0.000000   0.000000   0.000000
      5       0.000000   0.000000   0.000000   0.000000   0.000000   0.000000
      6       0.000000   0.000000   0.000000   0.000000   0.000000   0.000000
      7       0.000000   0.000000   0.000000   0.000000   0.000000   0.000000
      8       0.000000   0.000000   0.000000   0.000000   0.000000   0.000000
      9       0.000000   0.000000   0.000000   0.000000   0.000000   0.000000
     10       0.000000   0.000000   0.000000   0.000000   0.000000   0.000000
     11       0.000000   0.000000   0.000000   0.000000   0.000000   0.000000
                  6          7          8          9         10         11    
      0       0.000050  -0.319984  -0.000108  -0.001681  -0.001338  -0.895359
      1       0.320050   0.000050  -0.000000   0.000001   0.895350  -0.001338
      2      -0.000000   0.001114  -0.592266  -0.823559   0.000002   0.001213
      3       0.000074  -0.474710   0.447414  -0.277248   0.000495   0.331110
      4      -0.609057  -0.000095   0.000000  -0.000000  -0.046831   0.000070
      5       0.000008  -0.051757   0.124814   0.173302  -0.000216  -0.144406
      6      -0.469056   0.338433  -0.223673   0.139156   0.123032   0.117295
      7       0.203284   0.468596   0.388745  -0.240608  -0.259798  -0.121930
      8       0.044612   0.025533   0.124816   0.173686   0.124936   0.071633
      9       0.468951   0.338579  -0.223673   0.139156  -0.122682   0.117663
     10       0.203430  -0.468532  -0.388745   0.240608  -0.259433   0.122706
     11      -0.044620   0.025519   0.124816   0.173686  -0.124722   0.072006


-----------
IR SPECTRUM
-----------

 Mode   freq       eps      Int      T**2         TX        TY        TZ
       cm**-1   L/(mol*cm) km/mol    a.u.
----------------------------------------------------------------------------
  6:    532.50   0.000296    1.50  0.000173  ( 0.000002  0.013169 -0.000000)
  7:    532.73   0.000296    1.49  0.000173  (-0.013162  0.000002  0.000069)
  8:    731.62   0.002373   11.99  0.001012  ( 0.000043 -0.000000 -0.031812)
  9:   1117.07   0.008735   44.14  0.002440  (-0.000244  0.000000 -0.049397)
 10:   1217.88   0.069213  349.77  0.017735  (-0.000199  0.133172  0.000000)
 11:   1218.04   0.069279  350.11  0.017749  (-0.133226 -0.000199  0.000031)

* The epsilon (eps) is given for a Dirac delta lineshape.
** The dipole moment derivative (T) already includes vibrational overlap.

The first frequency considered to be a vibration is 6
The total number of vibrations considered is 6


--------------------------
THERMOCHEMISTRY AT 298.15K
--------------------------

Temperature         ... 298.15 K
Pressure            ... 1.00 atm
Total Mass          ... 69.00 AMU

Throughout the following assumptions are being made:
  (1) The electronic state is orbitally nondegenerate
      but the spin degeneracy is treated
  (2) There are no thermally accessible electronically excited states
  (3) Hindered rotations indicated by low frequency modes are not
      treated as such but are treated as vibrations and this may
      cause some error
  (4) All equations used are the standard statistical mechanics
      equations for an ideal gas
  (5) All vibrations are strictly harmonic

freq.     532.50  E(vib)   ...       0.13 
freq.     532.73  E(vib)   ...       0.13 
freq.     731.62  E(vib)   ...       0.06 
freq.    1117.07  E(vib)   ...       0.01 
freq.    1217.88  E(vib)   ...       0.01 
freq.    1218.04  E(vib)   ...       0.01 

------------
INNER ENERGY
------------

The inner energy is: U= E(el) + E(ZPE) + E(vib) + E(rot) + E(trans)
    E(el)   - is the total energy from the electronic structure calculation
              = E(kin-el) + E(nuc-el) + E(el-el) + E(nuc-nuc)
    E(ZPE)  - the the zero temperature vibrational energy from the frequency calculation
    E(vib)  - the the finite temperature correction to E(ZPE) due to population
              of excited vibrational states
    E(rot)  - is the rotational thermal energy
    E(trans)- is the translational thermal energy

Summary of contributions to the inner energy U:
Electronic energy                ...   -337.62937788 Eh
Zero point energy                ...      0.01218782 Eh       7.65 kcal/mol
Thermal vibrational correction   ...      0.00055728 Eh       0.35 kcal/mol
Thermal rotational correction    ...      0.00141627 Eh       0.89 kcal/mol
Thermal translational correction ...      0.00141627 Eh       0.89 kcal/mol
-----------------------------------------------------------------------
Total thermal energy                   -337.61380024 Eh


Summary of corrections to the electronic energy:
(perhaps to be used in another calculation)
Total thermal correction                  0.00338982 Eh       2.13 kcal/mol
Non-thermal (ZPE) correction              0.01218782 Eh       7.65 kcal/mol
-----------------------------------------------------------------------
Total correction                          0.01557764 Eh       9.78 kcal/mol


--------
ENTHALPY
--------

The enthalpy is H = U + kB*T
                kB is Boltzmann's constant
Total free energy                 ...   -337.61380024 Eh 
Thermal Enthalpy correction       ...      0.00094421 Eh       0.59 kcal/mol
-----------------------------------------------------------------------
Total Enthalpy                    ...   -337.61285603 Eh


Note: Rotational entropy computed according to Herzberg 
Infrared and Raman Spectra, Chapter V,1, Van Nostrand Reinhold, 1945 
Point Group:  Cs, Symmetry Number:   1  
Rotational constants in cm-1:     0.369397     0.369340     0.194064 

Vibrational entropy computed according to the QRRHO of S. Grimme
Chem.Eur.J. 2012 18 9955


-------
ENTROPY
-------

The entropy contributions are T*S = T*(S(el)+S(vib)+S(rot)+S(trans))
     S(el)   - electronic entropy
     S(vib)  - vibrational entropy
     S(rot)  - rotational entropy
     S(trans)- translational entropy
The entropies will be listed as multiplied by the temperature to get
units of energy

Electronic entropy                ...      0.00065446 Eh      0.41 kcal/mol
Vibrational entropy               ...      0.00074612 Eh      0.47 kcal/mol
Rotational entropy                ...      0.01122520 Eh      7.04 kcal/mol
Translational entropy             ...      0.01834582 Eh     11.51 kcal/mol
-----------------------------------------------------------------------
Final entropy term                ...      0.03097160 Eh     19.43 kcal/mol

In case the symmetry of your molecule has not been determined correctly
or in case you have a reason to use a different symmetry number we print 
out the resulting rotational entropy values for sn=1,12 :
 --------------------------------------------------------
|  sn= 1 | S(rot)=       0.01122520 Eh      7.04 kcal/mol|
|  sn= 2 | S(rot)=       0.01057074 Eh      6.63 kcal/mol|
|  sn= 3 | S(rot)=       0.01018791 Eh      6.39 kcal/mol|
|  sn= 4 | S(rot)=       0.00991629 Eh      6.22 kcal/mol|
|  sn= 5 | S(rot)=       0.00970560 Eh      6.09 kcal/mol|
|  sn= 6 | S(rot)=       0.00953346 Eh      5.98 kcal/mol|
|  sn= 7 | S(rot)=       0.00938791 Eh      5.89 kcal/mol|
|  sn= 8 | S(rot)=       0.00926183 Eh      5.81 kcal/mol|
|  sn= 9 | S(rot)=       0.00915062 Eh      5.74 kcal/mol|
|  sn=10 | S(rot)=       0.00905114 Eh      5.68 kcal/mol|
|  sn=11 | S(rot)=       0.00896115 Eh      5.62 kcal/mol|
|  sn=12 | S(rot)=       0.00887900 Eh      5.57 kcal/mol|
 --------------------------------------------------------


-------------------
GIBBS FREE ENERGY
-------------------

The Gibbs free energy is G = H - T*S

Total enthalpy                    ...   -337.61285603 Eh 
Total entropy correction          ...     -0.03097160 Eh    -19.43 kcal/mol
-----------------------------------------------------------------------
Final Gibbs free energy         ...   -337.64382763 Eh

For completeness - the Gibbs free energy minus the electronic energy
G-E(el)                           ...     -0.01444975 Eh     -9.07 kcal/mol


Timings for individual modules:

Sum of individual times         ...      133.977 sec (=   2.233 min)
GTO integral calculation        ...       51.751 sec (=   0.863 min)  38.6 %
SCF iterations                  ...       48.091 sec (=   0.802 min)  35.9 %
SCF Gradient evaluation         ...       12.046 sec (=   0.201 min)   9.0 %
Geometry relaxation             ...        0.300 sec (=   0.005 min)   0.2 %
Analytical frequency calculation...       21.788 sec (=   0.363 min)  16.3 %
                             ****ORCA TERMINATED NORMALLY****
TOTAL RUN TIME: 0 days 0 hours 2 minutes 25 seconds 19 msec

slurmID:    32260056
totalRuntime[s]:    145.098671689
