
                                 *****************
                                 * O   R   C   A *
                                 *****************

                                            #,                                       
                                            ###                                      
                                            ####                                     
                                            #####                                    
                                            ######                                   
                                           ########,                                 
                                     ,,################,,,,,                         
                               ,,#################################,,                 
                          ,,##########################################,,             
                       ,#########################################, ''#####,          
                    ,#############################################,,   '####,        
                  ,##################################################,,,,####,       
                ,###########''''           ''''###############################       
              ,#####''   ,,,,##########,,,,          '''####'''          '####       
            ,##' ,,,,###########################,,,                        '##       
           ' ,,###''''                  '''############,,,                           
         ,,##''                                '''############,,,,        ,,,,,,###''
      ,#''                                            '''#######################'''  
     '                                                          ''''####''''         
             ,#######,   #######,   ,#######,      ##                                
            ,#'     '#,  ##    ##  ,#'     '#,    #''#        ######   ,####,        
            ##       ##  ##   ,#'  ##            #'  '#       #        #'  '#        
            ##       ##  #######   ##           ,######,      #####,   #    #        
            '#,     ,#'  ##    ##  '#,     ,#' ,#      #,         ##   #,  ,#        
             '#######'   ##     ##  '#######'  #'      '#     #####' # '####'        



                  #######################################################
                  #                        -***-                        #
                  #          Department of theory and spectroscopy      #
                  #    Directorship and core code : Frank Neese         #
                  #        Max Planck Institute fuer Kohlenforschung    #
                  #                Kaiser Wilhelm Platz 1               #
                  #                 D-45470 Muelheim/Ruhr               #
                  #                      Germany                        #
                  #                                                     #
                  #                  All rights reserved                #
                  #                        -***-                        #
                  #######################################################


                         Program Version 5.0.4 -  RELEASE  -


 With contributions from (in alphabetic order):
   Daniel Aravena         : Magnetic Suceptibility
   Michael Atanasov       : Ab Initio Ligand Field Theory (pilot matlab implementation)
   Alexander A. Auer      : GIAO ZORA, VPT2 properties, NMR spectrum
   Ute Becker             : Parallelization
   Giovanni Bistoni       : ED, misc. LED, open-shell LED, HFLD
   Martin Brehm           : Molecular dynamics
   Dmytro Bykov           : SCF Hessian
   Vijay G. Chilkuri      : MRCI spin determinant printing, contributions to CSF-ICE
   Dipayan Datta          : RHF DLPNO-CCSD density
   Achintya Kumar Dutta   : EOM-CC, STEOM-CC
   Dmitry Ganyushin       : Spin-Orbit,Spin-Spin,Magnetic field MRCI
   Miquel Garcia          : C-PCM and meta-GGA Hessian, CC/C-PCM, Gaussian charge scheme
   Yang Guo               : DLPNO-NEVPT2, F12-NEVPT2, CIM, IAO-localization
   Andreas Hansen         : Spin unrestricted coupled pair/coupled cluster methods
   Benjamin Helmich-Paris : MC-RPA, TRAH-SCF, COSX integrals
   Lee Huntington         : MR-EOM, pCC
   Robert Izsak           : Overlap fitted RIJCOSX, COSX-SCS-MP3, EOM
   Marcus Kettner         : VPT2
   Christian Kollmar      : KDIIS, OOCD, Brueckner-CCSD(T), CCSD density, CASPT2, CASPT2-K
   Simone Kossmann        : Meta GGA functionals, TD-DFT gradient, OOMP2, MP2 Hessian
   Martin Krupicka        : Initial AUTO-CI
   Lucas Lang             : DCDCAS
   Marvin Lechner         : AUTO-CI (C++ implementation), FIC-MRCC
   Dagmar Lenk            : GEPOL surface, SMD
   Dimitrios Liakos       : Extrapolation schemes; Compound Job, initial MDCI parallelization
   Dimitrios Manganas     : Further ROCIS development; embedding schemes
   Dimitrios Pantazis     : SARC Basis sets
   Anastasios Papadopoulos: AUTO-CI, single reference methods and gradients
   Taras Petrenko         : DFT Hessian,TD-DFT gradient, ASA, ECA, R-Raman, ABS, FL, XAS/XES, NRVS
   Peter Pinski           : DLPNO-MP2, DLPNO-MP2 Gradient
   Christoph Reimann      : Effective Core Potentials
   Marius Retegan         : Local ZFS, SOC
   Christoph Riplinger    : Optimizer, TS searches, QM/MM, DLPNO-CCSD(T), (RO)-DLPNO pert. Triples
   Tobias Risthaus        : Range-separated hybrids, TD-DFT gradient, RPA, STAB
   Michael Roemelt        : Original ROCIS implementation
   Masaaki Saitow         : Open-shell DLPNO-CCSD energy and density
   Barbara Sandhoefer     : DKH picture change effects
   Avijit Sen             : IP-ROCIS
   Kantharuban Sivalingam : CASSCF convergence, NEVPT2, FIC-MRCI
   Bernardo de Souza      : ESD, SOC TD-DFT
   Georgi Stoychev        : AutoAux, RI-MP2 NMR, DLPNO-MP2 response
   Willem Van den Heuvel  : Paramagnetic NMR
   Boris Wezisla          : Elementary symmetry handling
   Frank Wennmohs         : Technical directorship


 We gratefully acknowledge several colleagues who have allowed us to
 interface, adapt or use parts of their codes:
   Stefan Grimme, W. Hujo, H. Kruse, P. Pracht,  : VdW corrections, initial TS optimization,
                  C. Bannwarth, S. Ehlert          DFT functionals, gCP, sTDA/sTD-DF
   Ed Valeev, F. Pavosevic, A. Kumar             : LibInt (2-el integral package), F12 methods
   Garnet Chan, S. Sharma, J. Yang, R. Olivares  : DMRG
   Ulf Ekstrom                                   : XCFun DFT Library
   Mihaly Kallay                                 : mrcc  (arbitrary order and MRCC methods)
   Jiri Pittner, Ondrej Demel                    : Mk-CCSD
   Frank Weinhold                                : gennbo (NPA and NBO analysis)
   Christopher J. Cramer and Donald G. Truhlar   : smd solvation model
   Lars Goerigk                                  : TD-DFT with DH, B97 family of functionals
   V. Asgeirsson, H. Jonsson                     : NEB implementation
   FAccTs GmbH                                   : IRC, NEB, NEB-TS, DLPNO-Multilevel, CI-OPT
                                                   MM, QMMM, 2- and 3-layer-ONIOM, Crystal-QMMM,
                                                   LR-CPCM, SF, NACMEs, symmetry and pop. for TD-DFT,
                                                   nearIR, NL-DFT gradient (VV10), updates on ESD,
                                                   ML-optimized integration grids
   S Lehtola, MJT Oliveira, MAL Marques          : LibXC Library
   Liviu Ungur et al                             : ANISO software


 Your calculation uses the libint2 library for the computation of 2-el integrals
 For citations please refer to: http://libint.valeyev.net

 Your ORCA version has been built with support for libXC version: 5.1.0
 For citations please refer to: https://tddft.org/programs/libxc/

 This ORCA versions uses:
   CBLAS   interface :  Fast vector & matrix operations
   LAPACKE interface :  Fast linear algebra routines
   SCALAPACK package :  Parallel linear algebra routines
   Shared memory     :  Shared parallel matrices
   BLAS/LAPACK       :  OpenBLAS 0.3.15  USE64BITINT DYNAMIC_ARCH NO_AFFINITY SkylakeX SINGLE_THREADED
        Core in use  :  SkylakeX
   Copyright (c) 2011-2014, The OpenBLAS Project


Your calculation utilizes the atom-pairwise dispersion correction
with the zero-damping scheme (D30)
Cite in your paper:
S.Grimme, J.Antony, S.Ehrlich and H.Krieg, J.Chem.Phys., 132, (2010), 154104 
   

XCFun DFT library Copyright 2009-2010 Ulf Ekstrom and contributors.
See http://admol.org/xcfun for more information.
This is free software; see the source code for copying conditions.
There is ABSOLUTELY NO WARRANTY; not even for MERCHANTABILITY or FITNESS FOR A PARTICULAR PURPOSE.
For details see the documentation.
Scientific users of this library should cite U. Ekstrom, L. Visscher, R. Bast, A. J. Thorvaldsen and K. Ruud;
J.Chem.Theor.Comp. 2010, DOI: 10.1021/ct100117s
XCFun Version 0.99 

================================================================================

----- Orbital basis set information -----
Your calculation utilizes the basis: def2-TZVPD
   F. Weigend and R. Ahlrichs, Phys. Chem. Chem. Phys. 7, 3297 (2005).
   D. Rappoport and F. Furche, J. Chem. Phys. 133 134105 (2010).

----- AuxJ basis set information -----
Your calculation utilizes the auxiliary basis: def2/J
   F. Weigend, Phys. Chem. Chem. Phys. 8, 1057 (2006).

================================================================================
                                        WARNINGS
                       Please study these warnings very carefully!
================================================================================


WARNING: Geometry Optimization
  ===> : Switching off AutoStart
         For restart on a previous wavefunction, please use MOREAD

INFO   : the flag for use of the SHARK integral package has been found!

================================================================================
                                       INPUT FILE
================================================================================
NAME = /beegfs/scratch/ispackman/PFAS_EPR_calcs/benchmark/JChemEd_CF3_radical/CF3_radical_109.0_degrees_IN-PROGRESS/CF3_radical_109.0_degrees.inp
|  1> ! UKS TightSCF wB97x-D3 def2-TZVPD xyzfile opt freq
|  2> 
|  3> # CF3 radical 109.0 degrees fixed
|  4> 
|  5> %maxcore 1000
|  6> %pal
|  7> nprocs 18
|  8> end
|  9> 
| 10> %geom Constraints
| 11>         { A * 0 * C }
| 12>     end
| 13> end
| 14> * xyz 0 2
| 15> C 0.00 0.00 0.00
| 16> F 1.2361784100 0.0000000000 -0.4484282983
| 17> F -0.6180892050 1.0705619066 -0.4484282983
| 18> F -0.6180892050 -1.0705619066 -0.4484282983
| 19> **                         ****END OF INPUT****
================================================================================

                       *****************************
                       * Geometry Optimization Run *
                       *****************************

Geometry optimization settings:
Update method            Update   .... BFGS
Choice of coordinates    CoordSys .... Z-matrix Internals
Initial Hessian          InHess   .... Almoef's Model

Convergence Tolerances:
Energy Change            TolE     ....  5.0000e-06 Eh
Max. Gradient            TolMAXG  ....  3.0000e-04 Eh/bohr
RMS Gradient             TolRMSG  ....  1.0000e-04 Eh/bohr
Max. Displacement        TolMAXD  ....  4.0000e-03 bohr
RMS Displacement         TolRMSD  ....  2.0000e-03 bohr
Strict Convergence                ....  False
------------------------------------------------------------------------------
                        ORCA OPTIMIZATION COORDINATE SETUP
------------------------------------------------------------------------------

The optimization will be done in new redundant internal coordinates
Making redundant internal coordinates   ...  (new redundants) done
Evaluating the initial hessian          ...  (Almloef) done
Evaluating the coordinates              ...  done
Calculating the B-matrix                .... done
Calculating the G-matrix                .... done
Diagonalizing the G-matrix              .... done
Imposing constraints:
 Iter   0:  RMS(Cart)=    0.0000000000 RMS(Int)=    0.0000000000
CONVERGED
Will constrain atom 0 coordinate 1 
Will constrain atom 0 coordinate 2 
Will constrain atom 1 coordinate 2 
The first mode is                       ....    1
The number of degrees of freedom        ....    6
Storing new coordinates                 .... done

    -----------------------------------------------------------------
                    Redundant Internal Coordinates


    -----------------------------------------------------------------
         Definition                    Initial Value    Approx d2E/dq
    -----------------------------------------------------------------
      1. B(F   1,C   0)                  1.3150         0.684896   
      2. B(F   2,C   0)                  1.3150         0.684896   
      3. B(F   3,C   0)                  1.3150         0.684896   
      4. A(F   2,C   0,F   3)          109.0000         0.440101 C 
      5. A(F   1,C   0,F   2)          109.0000         0.440101 C 
      6. A(F   1,C   0,F   3)          109.0000         0.440101 C 
      7. I(F   1,F   3,F   2,C   0)     55.8996         0.011017   
    -----------------------------------------------------------------

Number of atoms                         .... 4
Number of degrees of freedom            .... 7

         *************************************************************
         *                GEOMETRY OPTIMIZATION CYCLE   1            *
         *************************************************************
---------------------------------
CARTESIAN COORDINATES (ANGSTROEM)
---------------------------------
  C      0.000000    0.000000    0.000000
  F      1.236178    0.000000   -0.448428
  F     -0.618089    1.070562   -0.448428
  F     -0.618089   -1.070562   -0.448428

----------------------------
CARTESIAN COORDINATES (A.U.)
----------------------------
  NO LB      ZA    FRAG     MASS         X           Y           Z
   0 C     6.0000    0    12.011    0.000000    0.000000    0.000000
   1 F     9.0000    0    18.998    2.336039    0.000000   -0.847407
   2 F     9.0000    0    18.998   -1.168019    2.023069   -0.847407
   3 F     9.0000    0    18.998   -1.168019   -2.023069   -0.847407

--------------------------------
INTERNAL COORDINATES (ANGSTROEM)
--------------------------------
 C      0   0   0     0.000000000000     0.00000000     0.00000000
 F      1   0   0     1.315000000025     0.00000000     0.00000000
 F      1   2   0     1.314999999968   109.00000000     0.00000000
 F      1   2   3     1.314999999968   109.00000000   118.86382289

---------------------------
INTERNAL COORDINATES (A.U.)
---------------------------
 C      0   0   0     0.000000000000     0.00000000     0.00000000
 F      1   0   0     2.484989866154     0.00000000     0.00000000
 F      1   2   0     2.484989866047   109.00000000     0.00000000
 F      1   2   3     2.484989866047   109.00000000   118.86382289

---------------------
BASIS SET INFORMATION
---------------------
There are 2 groups of distinct atoms

 Group   1 Type C   : 12s6p3d1f contracted to 6s3p3d1f pattern {621111/411/111/1}
 Group   2 Type F   : 12s7p3d1f contracted to 6s4p3d1f pattern {621111/4111/111/1}

Atom   0C    basis set group =>   1
Atom   1F    basis set group =>   2
Atom   2F    basis set group =>   2
Atom   3F    basis set group =>   2
---------------------------------
AUXILIARY/J BASIS SET INFORMATION
---------------------------------
There are 2 groups of distinct atoms

 Group   1 Type C   : 12s5p4d2f1g contracted to 6s4p3d1f1g pattern {711111/2111/211/2/1}
 Group   2 Type F   : 12s5p4d2f1g contracted to 6s4p3d1f1g pattern {711111/2111/211/2/1}

Atom   0C    basis set group =>   1
Atom   1F    basis set group =>   2
Atom   2F    basis set group =>   2
Atom   3F    basis set group =>   2


           ************************************************************
           *        Program running with 18 parallel MPI-processes    *
           *              working on a common directory               *
           ************************************************************
------------------------------------------------------------------------------
                           ORCA GTO INTEGRAL CALCULATION
                           -- RI-GTO INTEGRALS CHOSEN --
------------------------------------------------------------------------------
------------------------------------------------------------------------------
                   ___                                                        
                  /   \      - P O W E R E D   B Y -                         
                 /     \                                                     
                 |  |  |   _    _      __       _____    __    __             
                 |  |  |  | |  | |    /  \     |  _  \  |  |  /  |          
                  \  \/   | |  | |   /    \    | | | |  |  | /  /          
                 / \  \   | |__| |  /  /\  \   | |_| |  |  |/  /          
                |  |  |   |  __  | /  /__\  \  |    /   |      \           
                |  |  |   | |  | | |   __   |  |    \   |  |\   \          
                \     /   | |  | | |  |  |  |  | |\  \  |  | \   \       
                 \___/    |_|  |_| |__|  |__|  |_| \__\ |__|  \__/        
                                                                              
                      - O R C A' S   B I G   F R I E N D -                    
                                      &                                       
                       - I N T E G R A L  F E E D E R -                       
                                                                              
 v1 FN, 2020, v2 2021                                                         
------------------------------------------------------------------------------


Reading SHARK input file /beegfs/scratch/ispackman/PFAS_EPR_calcs/benchmark/JChemEd_CF3_radical/CF3_radical_109.0_degrees_IN-PROGRESS/CF3_radical_109.0_degrees.SHARKINP.tmp ... ok
----------------------
SHARK INTEGRAL PACKAGE
----------------------

Number of atoms                             ...      4
Number of basis functions                   ...    157
Number of shells                            ...     55
Maximum angular momentum                    ...      3
Integral batch strategy                     ... SHARK/LIBINT Hybrid
RI-J (if used) integral strategy            ... SPLIT-RIJ (Revised 2003 algorithm where possible)
Printlevel                                  ...      1
Contraction scheme used                     ... SEGMENTED contraction
Coulomb Range Separation                    ... NOT USED
Exchange Range Separation                   ... Long Range
   Mu parameter                             ...  0.250000
   Scaling (regular/separated)              ...  0.195728  0.804272
Finite Nucleus Model                        ... NOT USED
Auxiliary Coulomb fitting basis             ... AVAILABLE
   # of basis functions in Aux-J            ...    196
   # of shells in Aux-J                     ...     60
   Maximum angular momentum in Aux-J        ...      4
Auxiliary J/K fitting basis                 ... NOT available
Auxiliary Correlation fitting basis         ... NOT available
Auxiliary 'external' fitting basis          ... NOT available
Integral threshold                          ...     2.500000e-11
Primitive cut-off                           ...     2.500000e-12
Primitive pair pre-selection threshold      ...     2.500000e-12

Calculating pre-screening integrals         ... done (  0.0 sec) Dimension = 55
Organizing shell pair data                  ... done (  0.0 sec)
Shell pair information
Total number of shell pairs                 ...      1540
Shell pairs after pre-screening             ...      1504
Total number of primitive shell pairs       ...      4274
Primitive shell pairs kept                  ...      3545
          la=0 lb=0:    282 shell pairs
          la=1 lb=0:    354 shell pairs
          la=1 lb=1:    120 shell pairs
          la=2 lb=0:    276 shell pairs
          la=2 lb=1:    180 shell pairs
          la=2 lb=2:     78 shell pairs
          la=3 lb=0:     96 shell pairs
          la=3 lb=1:     60 shell pairs
          la=3 lb=2:     48 shell pairs
          la=3 lb=3:     10 shell pairs

Calculating one electron integrals          ... done (  0.0 sec)
Calculating RI/J V-Matrix + Cholesky decomp.... done (  1.0 sec)
Calculating Nuclear repulsion               ... done (  0.0 sec) ENN=    125.248687712823 Eh

SHARK setup successfully completed in   7.4 seconds

Maximum memory used throughout the entire GTOINT-calculation: 15.2 MB


           ************************************************************
           *        Program running with 18 parallel MPI-processes    *
           *              working on a common directory               *
           ************************************************************
-------------------------------------------------------------------------------
                                 ORCA SCF
-------------------------------------------------------------------------------

------------
SCF SETTINGS
------------
Hamiltonian:
 Density Functional     Method          .... DFT(GTOs)
 Exchange Functional    Exchange        .... WB97X-D3
 Correlation Functional Correlation     .... WB97X-D3
 Gradients option       PostSCFGGA      .... off
 Hybrid DFT is turned on
   Fraction HF Exchange ScalHFX         ....  0.195728
   Scaling of DF-GGA-X  ScalDFX         ....  0.000000
   Scaling of DF-GGA-C  ScalDFC         ....  1.000000
   Scaling of DF-LDA-C  ScalLDAC        ....  1.000000
   Perturbative correction              ....  0.000000
   Density functional embedding theory  .... OFF
 Long-range corrected/Screened/Range-Separated Hybrid DFT is turned on
   Amount of maximum screened exact exchange              ....  0.804272
   Range separation parameter mu (erf(mu*r12)/r12)        ....  0.250000
 RI-approximation to the Coulomb term is turned on
   Number of AuxJ basis functions       .... 196
   RIJ-COSX (HFX calculated with COS-X)).... on


General Settings:
 Integral files         IntName         .... /beegfs/scratch/ispackman/PFAS_EPR_calcs/benchmark/JChemEd_CF3_radical/CF3_radical_109.0_degrees_IN-PROGRESS/CF3_radical_109.0_degrees
 Hartree-Fock type      HFTyp           .... UHF
 Total Charge           Charge          ....    0
 Multiplicity           Mult            ....    2
 Number of Electrons    NEL             ....   33
 Basis Dimension        Dim             ....  157
 Nuclear Repulsion      ENuc            ....    125.2486877128 Eh

Convergence Acceleration:
 DIIS                   CNVDIIS         .... on
   Start iteration      DIISMaxIt       ....    12
   Startup error        DIISStart       ....  0.200000
   # of expansion vecs  DIISMaxEq       ....     5
   Bias factor          DIISBfac        ....   1.050
   Max. coefficient     DIISMaxC        ....  10.000
 Trust-Rad. Augm. Hess. CNVTRAH         .... auto
   Auto Start mean grad. ratio tolernc. ....  1.125000
   Auto Start start iteration           ....    20
   Auto Start num. interpolation iter.  ....    10
   Max. Number of Micro iterations      ....    16
   Max. Number of Macro iterations      .... Maxiter - #DIIS iter
   Number of Davidson start vectors     ....     2
   Converg. threshold I  (grad. norm)   ....   1.000e-05
   Converg. threshold II (energy diff.) ....   1.000e-08
   Grad. Scal. Fac. for Micro threshold ....   0.100
   Minimum threshold for Micro iter.    ....   0.010
   NR start threshold (gradient norm)   ....   0.001
   Initial trust radius                 ....   0.400
   Minimum AH scaling param. (alpha)    ....   1.000
   Maximum AH scaling param. (alpha)    .... 1000.000
   Orbital update algorithm             .... Taylor
   White noise on init. David. guess    .... on
   Maximum white noise                  ....   0.010
   Quad. conv. algorithm                .... NR
 SOSCF                  CNVSOSCF        .... off
 Level Shifting         CNVShift        .... on
   Level shift para.    LevelShift      ....    0.2500
   Turn off err/grad.   ShiftErr        ....    0.0010
 Zerner damping         CNVZerner       .... off
 Static damping         CNVDamp         .... on
   Fraction old density DampFac         ....    0.7000
   Max. Damping (<1)    DampMax         ....    0.9800
   Min. Damping (>=0)   DampMin         ....    0.0000
   Turn off err/grad.   DampErr         ....    0.1000
 Fernandez-Rico         CNVRico         .... off

SCF Procedure:
 Maximum # iterations   MaxIter         ....   125
 SCF integral mode      SCFMode         .... Direct
   Integral package                     .... SHARK and LIBINT hybrid scheme
 Reset frequency        DirectResetFreq ....    20
 Integral Threshold     Thresh          ....  2.500e-11 Eh
 Primitive CutOff       TCut            ....  2.500e-12 Eh

Convergence Tolerance:
 Convergence Check Mode ConvCheckMode   .... Total+1el-Energy
 Convergence forced     ConvForced      .... 0
 Energy Change          TolE            ....  1.000e-08 Eh
 1-El. energy change                    ....  1.000e-05 Eh
 DIIS Error             TolErr          ....  5.000e-07


Diagonalization of the overlap matrix:
Smallest eigenvalue                        ... 3.207e-04
Time for diagonalization                   ...    0.004 sec
Threshold for overlap eigenvalues          ... 1.000e-08
Number of eigenvalues below threshold      ... 0
Time for construction of square roots      ...    0.017 sec
Total time needed                          ...    0.022 sec

Time for model grid setup =    0.071 sec

------------------------------
INITIAL GUESS: MODEL POTENTIAL
------------------------------
Loading Hartree-Fock densities                     ... done
Calculating cut-offs                               ... done
Initializing the effective Hamiltonian             ... done
Setting up the integral package (SHARK)            ... done
Starting the Coulomb interaction                   ... done (   0.4 sec)
Reading the grid                                   ... done
Mapping shells                                     ... done
Starting the XC term evaluation                    ... done (   0.0 sec)
  promolecular density results
     # of electrons  =     32.999945654
     EX              =    -35.097339032
     EC              =     -1.145415882
     EX+EC           =    -36.242754913
Transforming the Hamiltonian                       ... done (   0.0 sec)
Diagonalizing the Hamiltonian                      ... done (   0.0 sec)
Back transforming the eigenvectors                 ... done (   0.0 sec)
Now organizing SCF variables                       ... done
                      ------------------
                      INITIAL GUESS DONE (   0.5 sec)
                      ------------------
-------------------
DFT GRID GENERATION
-------------------

General Integration Accuracy     IntAcc      ... 4.388
Radial Grid Type                 RadialGrid  ... OptM3 with GC (2021)
Angular Grid (max. ang.)         AngularGrid ... 4 (Lebedev-302)
Angular grid pruning method      GridPruning ... 4 (adaptive)
Weight generation scheme         WeightScheme... Becke
Basis function cutoff            BFCut       ... 1.0000e-11
Integration weight cutoff        WCut        ... 1.0000e-14
Angular grids for H and He will be reduced by one unit
Partially contracted basis set               ... off
Rotationally invariant grid construction     ... off

Total number of grid points                  ...    25776
Total number of batches                      ...      406
Average number of points per batch           ...       63
Average number of grid points per atom       ...     6444
Time for grid setup =    0.154 sec

--------------------
COSX GRID GENERATION
--------------------

GRIDX 1
-------
General Integration Accuracy     IntAcc      ... 3.816
Radial Grid Type                 RadialGrid  ... OptM3 with GC (2021)
Angular Grid (max. ang.)         AngularGrid ... 1 (Lebedev-50)
Angular grid pruning method      GridPruning ... 4 (adaptive)
Weight generation scheme         WeightScheme... Becke
Basis function cutoff            BFCut       ... 1.0000e-11
Integration weight cutoff        WCut        ... 1.0000e-14
Angular grids for H and He will be reduced by one unit
Partially contracted basis set               ... on
Rotationally invariant grid construction     ... off

Total number of grid points                  ...     3270
Total number of batches                      ...       53
Average number of points per batch           ...       61
Average number of grid points per atom       ...      818
UseSFitting                                  ... on

GRIDX 2
-------
General Integration Accuracy     IntAcc      ... 4.020
Radial Grid Type                 RadialGrid  ... OptM3 with GC (2021)
Angular Grid (max. ang.)         AngularGrid ... 2 (Lebedev-110)
Angular grid pruning method      GridPruning ... 4 (adaptive)
Weight generation scheme         WeightScheme... Becke
Basis function cutoff            BFCut       ... 1.0000e-11
Integration weight cutoff        WCut        ... 1.0000e-14
Angular grids for H and He will be reduced by one unit
Partially contracted basis set               ... on
Rotationally invariant grid construction     ... off

Total number of grid points                  ...     9129
Total number of batches                      ...      145
Average number of points per batch           ...       62
Average number of grid points per atom       ...     2282
UseSFitting                                  ... on

GRIDX 3
-------
General Integration Accuracy     IntAcc      ... 4.338
Radial Grid Type                 RadialGrid  ... OptM3 with GC (2021)
Angular Grid (max. ang.)         AngularGrid ... 3 (Lebedev-194)
Angular grid pruning method      GridPruning ... 4 (adaptive)
Weight generation scheme         WeightScheme... Becke
Basis function cutoff            BFCut       ... 1.0000e-11
Integration weight cutoff        WCut        ... 1.0000e-14
Angular grids for H and He will be reduced by one unit
Partially contracted basis set               ... on
Rotationally invariant grid construction     ... off

Total number of grid points                  ...    19678
Total number of batches                      ...      309
Average number of points per batch           ...       63
Average number of grid points per atom       ...     4920
UseSFitting                                  ... on

Time for X-Grid setup             =    0.401 sec

--------------
SCF ITERATIONS
--------------
ITER       Energy         Delta-E        Max-DP      RMS-DP      [F,P]     Damp
               ***  Starting incremental Fock matrix formation  ***
  0   -337.5775333216   0.000000000000 0.01527894  0.00036702  0.0632245 0.7000
  1   -337.6002957669  -0.022762445301 0.00906820  0.00024813  0.0306034 0.7000
                               ***Turning on DIIS***
  2   -337.6100386477  -0.009742880755 0.01818981  0.00048506  0.0159758 0.0000
  3   -337.6278419045  -0.017803256809 0.00622559  0.00014183  0.0145164 0.0000
  4   -337.6305366293  -0.002694724808 0.00488577  0.00009345  0.0038564 0.0000
  5   -337.6307911147  -0.000254485457 0.00347671  0.00005958  0.0023951 0.0000
  6   -337.6308721704  -0.000081055674 0.00241980  0.00003880  0.0010581 0.0000
  7   -337.6308942775  -0.000022107068 0.00230749  0.00003163  0.0004472 0.0000
               *** Restarting incremental Fock matrix formation ***
                                   *** Resetting DIIS ***
  8   -337.6309053184  -0.000011040880 0.00073098  0.00000895  0.0000391 0.0000
  9   -337.6309054002  -0.000000081860 0.00010519  0.00000137  0.0000227 0.0000
 10   -337.6309054143  -0.000000014102 0.00002789  0.00000049  0.0000168 0.0000
 11   -337.6309054202  -0.000000005888 0.00001348  0.00000022  0.0000068 0.0000
 12   -337.6309054185   0.000000001729 0.00001251  0.00000015  0.0000017 0.0000
                 **** Energy Check signals convergence ****

               *****************************************************
               *                     SUCCESS                       *
               *           SCF CONVERGED AFTER  13 CYCLES          *
               *****************************************************

Old exchange energy                            =    -10.538405762 Eh
New exchange energy                            =    -10.538393468 Eh
Exchange energy change after final integration =      0.000012294 Eh
Total energy after final integration           =   -337.630893122 Eh
Final COS-X integration done in                =     0.400 sec

----------------
TOTAL SCF ENERGY
----------------

Total Energy       :         -337.63089312 Eh           -9187.40368 eV

Components:
Nuclear Repulsion  :          125.24868771 Eh            3408.19006 eV
Electronic Energy  :         -462.87958084 Eh          -12595.59374 eV
One Electron Energy:         -717.30962985 Eh          -19518.98735 eV
Two Electron Energy:          254.43004901 Eh            6923.39361 eV
Max COSX asymmetry :            0.00000071 Eh               0.00002 eV

Virial components:
Potential Energy   :         -674.26532565 Eh          -18347.69229 eV
Kinetic Energy     :          336.63443252 Eh            9160.28861 eV
Virial Ratio       :            2.00296007


DFT components:
N(Alpha)           :       16.999871636228 electrons
N(Beta)            :       15.999903147728 electrons
N(Total)           :       32.999774783956 electrons
E(XC)              :      -26.197209761920 Eh       
DFET-embed. en.    :        0.000000000000 Eh       

---------------
SCF CONVERGENCE
---------------

  Last Energy change         ...    1.6925e-09  Tolerance :   1.0000e-08
  Last MAX-Density change    ...    0.0000e+00  Tolerance :   1.0000e-07
  Last RMS-Density change    ...    0.0000e+00  Tolerance :   5.0000e-09
  Last DIIS Error            ...    5.7307e-07  Tolerance :   5.0000e-07

             **** THE GBW FILE WAS UPDATED (/beegfs/scratch/ispackman/PFAS_EPR_calcs/benchmark/JChemEd_CF3_radical/CF3_radical_109.0_degrees_IN-PROGRESS/CF3_radical_109.0_degrees.gbw) ****
             **** DENSITY /beegfs/scratch/ispackman/PFAS_EPR_calcs/benchmark/JChemEd_CF3_radical/CF3_radical_109.0_degrees_IN-PROGRESS/CF3_radical_109.0_degrees.scfp WAS UPDATED ****
             **** ENERGY FILE WAS UPDATED (/beegfs/scratch/ispackman/PFAS_EPR_calcs/benchmark/JChemEd_CF3_radical/CF3_radical_109.0_degrees_IN-PROGRESS/CF3_radical_109.0_degrees.en.tmp) ****
----------------------
UHF SPIN CONTAMINATION
----------------------

Warning: in a DFT calculation there is little theoretical justification to 
         calculate <S**2> as in Hartree-Fock theory. We will do it anyways
         but you should keep in mind that the values have only limited relevance

Expectation value of <S**2>     :     0.751990
Ideal value S*(S+1) for S=0.5   :     0.750000
Deviation                       :     0.001990

             **** THE GBW FILE WAS UPDATED (/beegfs/scratch/ispackman/PFAS_EPR_calcs/benchmark/JChemEd_CF3_radical/CF3_radical_109.0_degrees_IN-PROGRESS/CF3_radical_109.0_degrees.gbw) ****
             **** DENSITY /beegfs/scratch/ispackman/PFAS_EPR_calcs/benchmark/JChemEd_CF3_radical/CF3_radical_109.0_degrees_IN-PROGRESS/CF3_radical_109.0_degrees.scfp WAS UPDATED ****
----------------
ORBITAL ENERGIES
----------------
                 SPIN UP ORBITALS
  NO   OCC          E(Eh)            E(eV) 
   0   1.0000     -24.850745      -676.2232 
   1   1.0000     -24.850744      -676.2231 
   2   1.0000     -24.850737      -676.2229 
   3   1.0000     -10.543254      -286.8965 
   4   1.0000      -1.473698       -40.1014 
   5   1.0000      -1.380522       -37.5659 
   6   1.0000      -1.380519       -37.5658 
   7   1.0000      -0.839078       -22.8325 
   8   1.0000      -0.732311       -19.9272 
   9   1.0000      -0.732306       -19.9271 
  10   1.0000      -0.702657       -19.1203 
  11   1.0000      -0.607420       -16.5287 
  12   1.0000      -0.607419       -16.5287 
  13   1.0000      -0.568126       -15.4595 
  14   1.0000      -0.568115       -15.4592 
  15   1.0000      -0.543428       -14.7874 
  16   1.0000      -0.388667       -10.5762 
  17   0.0000       0.071089         1.9344 
  18   0.0000       0.104629         2.8471 
  19   0.0000       0.104630         2.8471 
  20   0.0000       0.113599         3.0912 
  21   0.0000       0.159479         4.3397 
  22   0.0000       0.159480         4.3397 
  23   0.0000       0.173099         4.7103 
  24   0.0000       0.173099         4.7103 
  25   0.0000       0.182681         4.9710 
  26   0.0000       0.238278         6.4839 
  27   0.0000       0.238283         6.4840 
  28   0.0000       0.238962         6.5025 
  29   0.0000       0.274948         7.4817 
  30   0.0000       0.325084         8.8460 
  31   0.0000       0.359798         9.7906 
  32   0.0000       0.359805         9.7908 
  33   0.0000       0.374088        10.1795 
  34   0.0000       0.388002        10.5581 
  35   0.0000       0.388005        10.5582 
  36   0.0000       0.407328        11.0840 
  37   0.0000       0.415999        11.3199 
  38   0.0000       0.415999        11.3199 
  39   0.0000       0.487825        13.2744 
  40   0.0000       0.487827        13.2745 
  41   0.0000       0.491782        13.3821 
  42   0.0000       0.578664        15.7463 
  43   0.0000       0.643839        17.5197 
  44   0.0000       0.643839        17.5197 
  45   0.0000       0.679930        18.5018 
  46   0.0000       0.679933        18.5019 
  47   0.0000       0.702744        19.1226 
  48   0.0000       0.702746        19.1227 
  49   0.0000       0.713459        19.4142 
  50   0.0000       0.736990        20.0545 
  51   0.0000       0.752028        20.4637 
  52   0.0000       0.788058        21.4441 
  53   0.0000       0.788064        21.4443 
  54   0.0000       0.871896        23.7255 
  55   0.0000       0.883114        24.0308 
  56   0.0000       0.883117        24.0308 
  57   0.0000       0.946822        25.7643 
  58   0.0000       0.976866        26.5819 
  59   0.0000       0.976867        26.5819 
  60   0.0000       1.066277        29.0149 
  61   0.0000       1.066278        29.0149 
  62   0.0000       1.090753        29.6809 
  63   0.0000       1.159435        31.5498 
  64   0.0000       1.166004        31.7286 
  65   0.0000       1.166006        31.7286 
  66   0.0000       1.233436        33.5635 
  67   0.0000       1.251827        34.0639 
  68   0.0000       1.251841        34.0643 
  69   0.0000       1.303370        35.4665 
  70   0.0000       1.330795        36.2128 
  71   0.0000       1.330804        36.2130 
  72   0.0000       1.451074        39.4857 
  73   0.0000       1.451089        39.4862 
  74   0.0000       1.691319        46.0231 
  75   0.0000       2.122359        57.7523 
  76   0.0000       2.137718        58.1703 
  77   0.0000       2.137722        58.1704 
  78   0.0000       2.188223        59.5446 
  79   0.0000       2.216553        60.3155 
  80   0.0000       2.216556        60.3156 
  81   0.0000       2.254936        61.3599 
  82   0.0000       2.321288        63.1655 
  83   0.0000       2.337138        63.5968 
  84   0.0000       2.337142        63.5969 
  85   0.0000       2.500336        68.0376 
  86   0.0000       2.500358        68.0382 
  87   0.0000       2.632575        71.6360 
  88   0.0000       2.632584        71.6363 
  89   0.0000       2.672662        72.7268 
  90   0.0000       2.826014        76.8997 
  91   0.0000       2.960801        80.5675 
  92   0.0000       2.960802        80.5675 
  93   0.0000       3.154222        85.8307 
  94   0.0000       3.205723        87.2322 
  95   0.0000       3.206535        87.2543 
  96   0.0000       3.206592        87.2558 
  97   0.0000       3.314587        90.1945 
  98   0.0000       3.314595        90.1947 
  99   0.0000       3.363880        91.5358 
 100   0.0000       3.363884        91.5359 
 101   0.0000       3.413017        92.8729 
 102   0.0000       3.585490        97.5662 
 103   0.0000       3.585508        97.5666 
 104   0.0000       3.740847       101.7936 
 105   0.0000       3.882814       105.6567 
 106   0.0000       3.923044       106.7515 
 107   0.0000       3.923121       106.7535 
 108   0.0000       4.002309       108.9084 
 109   0.0000       4.060860       110.5016 
 110   0.0000       4.060878       110.5021 
 111   0.0000       4.151229       112.9607 
 112   0.0000       4.151274       112.9619 
 113   0.0000       4.199329       114.2695 
 114   0.0000       5.262989       143.2132 
 115   0.0000       5.391676       146.7150 
 116   0.0000       5.391731       146.7165 
 117   0.0000       6.903644       187.8577 
 118   0.0000       6.909755       188.0240 
 119   0.0000       6.909798       188.0252 
 120   0.0000       6.912595       188.1013 
 121   0.0000       6.912675       188.1035 
 122   0.0000       6.919806       188.2975 
 123   0.0000       6.922842       188.3801 
 124   0.0000       6.923587       188.4004 
 125   0.0000       6.923644       188.4019 
 126   0.0000       7.075852       192.5437 
 127   0.0000       7.075874       192.5443 
 128   0.0000       7.093669       193.0285 
 129   0.0000       7.222702       196.5397 
 130   0.0000       7.222741       196.5408 
 131   0.0000       7.241449       197.0498 
 132   0.0000       7.449304       202.7059 
 133   0.0000       7.449387       202.7081 
 134   0.0000       7.520513       204.6436 
 135   0.0000       7.710642       209.8172 
 136   0.0000       7.723050       210.1549 
 137   0.0000       7.723096       210.1561 
 138   0.0000       8.502090       231.3536 
 139   0.0000       8.502135       231.3548 
 140   0.0000       8.515002       231.7050 
 141   0.0000       8.575544       233.3524 
 142   0.0000       8.575560       233.3528 
 143   0.0000       8.612101       234.3472 
 144   0.0000       8.828864       240.2456 
 145   0.0000       8.828885       240.2462 
 146   0.0000       8.838380       240.5045 
 147   0.0000       8.898644       242.1444 
 148   0.0000       9.092340       247.4151 
 149   0.0000       9.092395       247.4166 
 150   0.0000       9.222595       250.9596 
 151   0.0000       9.395584       255.6668 
 152   0.0000       9.395605       255.6674 
 153   0.0000      22.811441       620.7309 
 154   0.0000      57.228186      1557.2581 
 155   0.0000      57.275150      1558.5361 
 156   0.0000      57.275153      1558.5362 

                 SPIN DOWN ORBITALS
  NO   OCC          E(Eh)            E(eV) 
   0   1.0000     -24.847765      -676.1421 
   1   1.0000     -24.847764      -676.1420 
   2   1.0000     -24.847749      -676.1416 
   3   1.0000     -10.530421      -286.5473 
   4   1.0000      -1.463982       -39.8370 
   5   1.0000      -1.371898       -37.3312 
   6   1.0000      -1.371895       -37.3312 
   7   1.0000      -0.820999       -22.3405 
   8   1.0000      -0.721892       -19.6437 
   9   1.0000      -0.721883       -19.6434 
  10   1.0000      -0.663953       -18.0671 
  11   1.0000      -0.596258       -16.2250 
  12   1.0000      -0.596256       -16.2250 
  13   1.0000      -0.559311       -15.2196 
  14   1.0000      -0.559301       -15.2194 
  15   1.0000      -0.540144       -14.6981 
  16   0.0000      -0.036322        -0.9884 
  17   0.0000       0.082315         2.2399 
  18   0.0000       0.107730         2.9315 
  19   0.0000       0.107731         2.9315 
  20   0.0000       0.129815         3.5324 
  21   0.0000       0.162487         4.4215 
  22   0.0000       0.162487         4.4215 
  23   0.0000       0.180105         4.9009 
  24   0.0000       0.180106         4.9009 
  25   0.0000       0.195504         5.3199 
  26   0.0000       0.240656         6.5486 
  27   0.0000       0.258111         7.0235 
  28   0.0000       0.258119         7.0238 
  29   0.0000       0.281935         7.6718 
  30   0.0000       0.334938         9.1141 
  31   0.0000       0.380625        10.3573 
  32   0.0000       0.380642        10.3578 
  33   0.0000       0.385376        10.4866 
  34   0.0000       0.390866        10.6360 
  35   0.0000       0.390870        10.6361 
  36   0.0000       0.418387        11.3849 
  37   0.0000       0.418594        11.3905 
  38   0.0000       0.418595        11.3905 
  39   0.0000       0.488140        13.2830 
  40   0.0000       0.488143        13.2830 
  41   0.0000       0.496975        13.5234 
  42   0.0000       0.584068        15.8933 
  43   0.0000       0.646475        17.5915 
  44   0.0000       0.646476        17.5915 
  45   0.0000       0.681784        18.5523 
  46   0.0000       0.681789        18.5524 
  47   0.0000       0.706530        19.2256 
  48   0.0000       0.706534        19.2258 
  49   0.0000       0.713953        19.4276 
  50   0.0000       0.748620        20.3710 
  51   0.0000       0.751286        20.4435 
  52   0.0000       0.789744        21.4900 
  53   0.0000       0.789747        21.4901 
  54   0.0000       0.873545        23.7704 
  55   0.0000       0.886404        24.1203 
  56   0.0000       0.886409        24.1204 
  57   0.0000       0.960266        26.1302 
  58   0.0000       0.985352        26.8128 
  59   0.0000       0.985355        26.8129 
  60   0.0000       1.069547        29.1038 
  61   0.0000       1.069551        29.1040 
  62   0.0000       1.093600        29.7584 
  63   0.0000       1.167370        31.7657 
  64   0.0000       1.167376        31.7659 
  65   0.0000       1.169893        31.8344 
  66   0.0000       1.241237        33.7758 
  67   0.0000       1.262842        34.3637 
  68   0.0000       1.262850        34.3639 
  69   0.0000       1.303621        35.4733 
  70   0.0000       1.336938        36.3799 
  71   0.0000       1.336942        36.3800 
  72   0.0000       1.456763        39.6405 
  73   0.0000       1.456785        39.6411 
  74   0.0000       1.745282        47.4915 
  75   0.0000       2.130459        57.9727 
  76   0.0000       2.144904        58.3658 
  77   0.0000       2.144942        58.3668 
  78   0.0000       2.190881        59.6169 
  79   0.0000       2.224618        60.5349 
  80   0.0000       2.224626        60.5351 
  81   0.0000       2.271609        61.8136 
  82   0.0000       2.322810        63.2069 
  83   0.0000       2.343558        63.7714 
  84   0.0000       2.343561        63.7715 
  85   0.0000       2.511351        68.3373 
  86   0.0000       2.511375        68.3380 
  87   0.0000       2.649877        72.1068 
  88   0.0000       2.649893        72.1073 
  89   0.0000       2.678035        72.8730 
  90   0.0000       2.837030        77.1995 
  91   0.0000       2.965023        80.6824 
  92   0.0000       2.965041        80.6829 
  93   0.0000       3.202853        87.1541 
  94   0.0000       3.222205        87.6807 
  95   0.0000       3.222256        87.6820 
  96   0.0000       3.224230        87.7358 
  97   0.0000       3.339159        90.8631 
  98   0.0000       3.339190        90.8640 
  99   0.0000       3.400249        92.5255 
 100   0.0000       3.400273        92.5261 
 101   0.0000       3.418448        93.0207 
 102   0.0000       3.617094        98.4261 
 103   0.0000       3.617124        98.4269 
 104   0.0000       3.771570       102.6296 
 105   0.0000       3.891735       105.8995 
 106   0.0000       3.937428       107.1429 
 107   0.0000       3.937513       107.1452 
 108   0.0000       4.013649       109.2169 
 109   0.0000       4.076598       110.9299 
 110   0.0000       4.076599       110.9299 
 111   0.0000       4.157081       113.1199 
 112   0.0000       4.157117       113.1209 
 113   0.0000       4.210485       114.5731 
 114   0.0000       5.276044       143.5685 
 115   0.0000       5.402963       147.0221 
 116   0.0000       5.403018       147.0236 
 117   0.0000       6.906242       187.9284 
 118   0.0000       6.913620       188.1292 
 119   0.0000       6.913670       188.1305 
 120   0.0000       6.918672       188.2666 
 121   0.0000       6.918750       188.2688 
 122   0.0000       6.924970       188.4380 
 123   0.0000       6.927492       188.5066 
 124   0.0000       6.927548       188.5082 
 125   0.0000       6.928334       188.5295 
 126   0.0000       7.082129       192.7145 
 127   0.0000       7.082150       192.7151 
 128   0.0000       7.096388       193.1025 
 129   0.0000       7.227671       196.6749 
 130   0.0000       7.227718       196.6762 
 131   0.0000       7.249410       197.2665 
 132   0.0000       7.457921       202.9403 
 133   0.0000       7.457997       202.9424 
 134   0.0000       7.530347       204.9112 
 135   0.0000       7.719192       210.0499 
 136   0.0000       7.729693       210.3356 
 137   0.0000       7.729782       210.3381 
 138   0.0000       8.510624       231.5859 
 139   0.0000       8.510668       231.5870 
 140   0.0000       8.520924       231.8661 
 141   0.0000       8.585477       233.6227 
 142   0.0000       8.585493       233.6231 
 143   0.0000       8.620002       234.5622 
 144   0.0000       8.837629       240.4841 
 145   0.0000       8.837647       240.4846 
 146   0.0000       8.845596       240.7009 
 147   0.0000       8.909455       242.4386 
 148   0.0000       9.097202       247.5474 
 149   0.0000       9.097249       247.5487 
 150   0.0000       9.229297       251.1419 
 151   0.0000       9.402105       255.8443 
 152   0.0000       9.402130       255.8450 
 153   0.0000      22.834251       621.3516 
 154   0.0000      57.231161      1557.3391 
 155   0.0000      57.278099      1558.6163 
 156   0.0000      57.278103      1558.6164 

                    ********************************
                    * MULLIKEN POPULATION ANALYSIS *
                    ********************************

--------------------------------------------
MULLIKEN ATOMIC CHARGES AND SPIN POPULATIONS
--------------------------------------------
   0 C :    0.541650    0.804992
   1 F :   -0.180496    0.065003
   2 F :   -0.180578    0.065002
   3 F :   -0.180576    0.065003
Sum of atomic charges         :   -0.0000000
Sum of atomic spin populations:    1.0000000

-----------------------------------------------------
MULLIKEN REDUCED ORBITAL CHARGES AND SPIN POPULATIONS
-----------------------------------------------------
CHARGE
  0 C s       :     3.186389  s :     3.186389
      pz      :     0.883955  p :     1.925515
      px      :     0.520794
      py      :     0.520766
      dz2     :     0.051374  d :     0.305801
      dxz     :     0.050192
      dyz     :     0.050197
      dx2y2   :     0.077025
      dxy     :     0.077013
      f0      :     0.002050  f :     0.040644
      f+1     :     0.005178
      f-1     :     0.005178
      f+2     :     0.005930
      f-2     :     0.005930
      f+3     :     0.004902
      f-3     :     0.011476
  1 F s       :     3.954384  s :     3.954384
      pz      :     1.809941  p :     5.214699
      px      :     1.484726
      py      :     1.920032
      dz2     :     0.000604  d :     0.010608
      dxz     :     0.006235
      dyz     :     0.000564
      dx2y2   :     0.005173
      dxy     :    -0.001968
      f0      :     0.000081  f :     0.000805
      f+1     :     0.000158
      f-1     :     0.000005
      f+2     :     0.000182
      f-2     :     0.000040
      f+3     :     0.000203
      f-3     :     0.000137
  2 F s       :     3.954439  s :     3.954439
      pz      :     1.809955  p :     5.214728
      px      :     1.811197
      py      :     1.593576
      dz2     :     0.000602  d :     0.010606
      dxz     :     0.001983
      dyz     :     0.004819
      dx2y2   :    -0.000184
      dxy     :     0.003386
      f0      :     0.000081  f :     0.000805
      f+1     :     0.000043
      f-1     :     0.000120
      f+2     :     0.000075
      f-2     :     0.000146
      f+3     :     0.000203
      f-3     :     0.000137
  3 F s       :     3.954438  s :     3.954438
      pz      :     1.809955  p :     5.214727
      px      :     1.811197
      py      :     1.593576
      dz2     :     0.000602  d :     0.010606
      dxz     :     0.001983
      dyz     :     0.004819
      dx2y2   :    -0.000184
      dxy     :     0.003386
      f0      :     0.000081  f :     0.000805
      f+1     :     0.000043
      f-1     :     0.000120
      f+2     :     0.000075
      f-2     :     0.000146
      f+3     :     0.000203
      f-3     :     0.000137

SPIN
  0 C s       :     0.259246  s :     0.259246
      pz      :     0.511862  p :     0.533488
      px      :     0.010798
      py      :     0.010828
      dz2     :     0.017662  d :     0.013025
      dxz     :    -0.001562
      dyz     :    -0.001559
      dx2y2   :    -0.000760
      dxy     :    -0.000757
      f0      :    -0.000224  f :    -0.000767
      f+1     :    -0.000454
      f-1     :    -0.000454
      f+2     :    -0.000132
      f-2     :    -0.000130
      f+3     :     0.000569
      f-3     :     0.000059
  1 F s       :     0.003335  s :     0.003335
      pz      :     0.063159  p :     0.059952
      px      :    -0.002099
      py      :    -0.001109
      dz2     :     0.000199  d :     0.001679
      dxz     :     0.000739
      dyz     :    -0.000004
      dx2y2   :     0.000778
      dxy     :    -0.000033
      f0      :    -0.000003  f :     0.000038
      f+1     :     0.000027
      f-1     :    -0.000000
      f+2     :     0.000003
      f-2     :     0.000002
      f+3     :     0.000008
      f-3     :     0.000001
  2 F s       :     0.003339  s :     0.003339
      pz      :     0.063176  p :     0.059948
      px      :    -0.001366
      py      :    -0.001862
      dz2     :     0.000198  d :     0.001678
      dxz     :     0.000181
      dyz     :     0.000554
      dx2y2   :     0.000170
      dxy     :     0.000575
      f0      :    -0.000003  f :     0.000037
      f+1     :     0.000006
      f-1     :     0.000020
      f+2     :     0.000002
      f-2     :     0.000003
      f+3     :     0.000008
      f-3     :     0.000001
  3 F s       :     0.003339  s :     0.003339
      pz      :     0.063176  p :     0.059948
      px      :    -0.001366
      py      :    -0.001862
      dz2     :     0.000198  d :     0.001678
      dxz     :     0.000181
      dyz     :     0.000554
      dx2y2   :     0.000170
      dxy     :     0.000575
      f0      :    -0.000003  f :     0.000037
      f+1     :     0.000006
      f-1     :     0.000020
      f+2     :     0.000002
      f-2     :     0.000003
      f+3     :     0.000008
      f-3     :     0.000001


                     *******************************
                     * LOEWDIN POPULATION ANALYSIS *
                     *******************************

-------------------------------------------
LOEWDIN ATOMIC CHARGES AND SPIN POPULATIONS
-------------------------------------------
   0 C :   -0.398384    0.616555
   1 F :    0.132800    0.127828
   2 F :    0.132792    0.127809
   3 F :    0.132792    0.127809

----------------------------------------------------
LOEWDIN REDUCED ORBITAL CHARGES AND SPIN POPULATIONS
----------------------------------------------------
CHARGE
  0 C s       :     2.687051  s :     2.687051
      pz      :     0.811130  p :     2.198804
      px      :     0.693840
      py      :     0.693835
      dz2     :     0.174491  d :     1.248278
      dxz     :     0.198550
      dyz     :     0.198552
      dx2y2   :     0.338342
      dxy     :     0.338343
      f0      :     0.015199  f :     0.264250
      f+1     :     0.025887
      f-1     :     0.025888
      f+2     :     0.043615
      f-2     :     0.043615
      f+3     :     0.046131
      f-3     :     0.063914
  1 F s       :     3.562149  s :     3.562149
      pz      :     1.729120  p :     5.097243
      px      :     1.583341
      py      :     1.784782
      dz2     :     0.031162  d :     0.205881
      dxz     :     0.063056
      dyz     :     0.005974
      dx2y2   :     0.044130
      dxy     :     0.061559
      f0      :     0.000182  f :     0.001928
      f+1     :     0.000420
      f-1     :     0.000013
      f+2     :     0.000461
      f-2     :     0.000082
      f+3     :     0.000404
      f-3     :     0.000364
  2 F s       :     3.562149  s :     3.562149
      pz      :     1.729113  p :     5.097253
      px      :     1.734421
      py      :     1.633720
      dz2     :     0.031161  d :     0.205878
      dxz     :     0.020245
      dyz     :     0.048786
      dx2y2   :     0.057200
      dxy     :     0.048487
      f0      :     0.000182  f :     0.001927
      f+1     :     0.000115
      f-1     :     0.000319
      f+2     :     0.000177
      f-2     :     0.000367
      f+3     :     0.000404
      f-3     :     0.000364
  3 F s       :     3.562149  s :     3.562149
      pz      :     1.729113  p :     5.097254
      px      :     1.734421
      py      :     1.633720
      dz2     :     0.031161  d :     0.205878
      dxz     :     0.020245
      dyz     :     0.048786
      dx2y2   :     0.057200
      dxy     :     0.048487
      f0      :     0.000182  f :     0.001927
      f+1     :     0.000115
      f-1     :     0.000319
      f+2     :     0.000177
      f-2     :     0.000367
      f+3     :     0.000404
      f-3     :     0.000364

SPIN
  0 C s       :     0.135882  s :     0.135882
      pz      :     0.412575  p :     0.423627
      px      :     0.005511
      py      :     0.005542
      dz2     :     0.057849  d :     0.049061
      dxz     :    -0.003773
      dyz     :    -0.003773
      dx2y2   :    -0.000620
      dxy     :    -0.000622
      f0      :    -0.000205  f :     0.007985
      f+1     :    -0.000236
      f-1     :    -0.000236
      f+2     :    -0.000204
      f-2     :    -0.000203
      f+3     :     0.009065
      f-3     :     0.000003
  1 F s       :     0.015248  s :     0.015248
      pz      :     0.072395  p :     0.077992
      px      :     0.006290
      py      :    -0.000694
      dz2     :     0.006374  d :     0.034200
      dxz     :     0.026593
      dyz     :    -0.000121
      dx2y2   :     0.001333
      dxy     :     0.000022
      f0      :     0.000019  f :     0.000388
      f+1     :     0.000225
      f-1     :     0.000000
      f+2     :     0.000124
      f-2     :     0.000001
      f+3     :     0.000016
      f-3     :     0.000003
  2 F s       :     0.015247  s :     0.015247
      pz      :     0.072404  p :     0.077975
      px      :     0.001044
      py      :     0.004528
      dz2     :     0.006374  d :     0.034199
      dxz     :     0.006557
      dyz     :     0.019914
      dx2y2   :     0.000349
      dxy     :     0.001006
      f0      :     0.000019  f :     0.000388
      f+1     :     0.000056
      f-1     :     0.000169
      f+2     :     0.000032
      f-2     :     0.000093
      f+3     :     0.000016
      f-3     :     0.000003
  3 F s       :     0.015247  s :     0.015247
      pz      :     0.072404  p :     0.077976
      px      :     0.001044
      py      :     0.004528
      dz2     :     0.006374  d :     0.034199
      dxz     :     0.006557
      dyz     :     0.019914
      dx2y2   :     0.000349
      dxy     :     0.001006
      f0      :     0.000019  f :     0.000388
      f+1     :     0.000056
      f-1     :     0.000169
      f+2     :     0.000032
      f-2     :     0.000093
      f+3     :     0.000016
      f-3     :     0.000003


                      *****************************
                      * MAYER POPULATION ANALYSIS *
                      *****************************

  NA   - Mulliken gross atomic population
  ZA   - Total nuclear charge
  QA   - Mulliken gross atomic charge
  VA   - Mayer's total valence
  BVA  - Mayer's bonded valence
  FA   - Mayer's free valence

  ATOM       NA         ZA         QA         VA         BVA        FA
  0 C      5.4583     6.0000     0.5417     3.8062     3.1569     0.6493
  1 F      9.1805     9.0000    -0.1805     1.0711     1.0674     0.0037
  2 F      9.1806     9.0000    -0.1806     1.0710     1.0673     0.0037
  3 F      9.1806     9.0000    -0.1806     1.0710     1.0673     0.0037

  Mayer bond orders larger than 0.100000
B(  0-C ,  1-F ) :   1.0523 B(  0-C ,  2-F ) :   1.0523 B(  0-C ,  3-F ) :   1.0523 


-------
TIMINGS
-------

Total SCF time: 0 days 0 hours 0 min 16 sec 

Total time                  ....      16.289 sec
Sum of individual times     ....      15.053 sec  ( 92.4%)

Fock matrix formation       ....      12.885 sec  ( 79.1%)
  Split-RI-J                ....       4.267 sec  ( 33.1% of F)
  Chain of spheres X        ....       3.092 sec  ( 24.0% of F)
  XC integration            ....       2.132 sec  ( 16.5% of F)
    Basis function eval.    ....       0.129 sec  (  6.0% of XC)
    Density eval.           ....       0.165 sec  (  7.8% of XC)
    XC-Functional eval.     ....       0.072 sec  (  3.4% of XC)
    XC-Potential eval.      ....       0.332 sec  ( 15.6% of XC)
Diagonalization             ....       0.410 sec  (  2.5%)
Density matrix formation    ....       0.016 sec  (  0.1%)
Population analysis         ....       0.151 sec  (  0.9%)
Initial guess               ....       0.460 sec  (  2.8%)
Orbital Transformation      ....       0.000 sec  (  0.0%)
Orbital Orthonormalization  ....       0.000 sec  (  0.0%)
DIIS solution               ....       0.505 sec  (  3.1%)
Grid generation             ....       0.627 sec  (  3.8%)

Maximum memory used throughout the entire SCF-calculation: 63.2 MB


-------------------------------------------------------------------------------
                          DFT DISPERSION CORRECTION                            
                                                                               
                              DFTD3 V3.1  Rev 1                                
                              USING zero damping                               
-------------------------------------------------------------------------------
The omegaB97X-D3 functional is recognized. Fit by Chai et al.
Active option DFTDOPT                   ...         3   

molecular C6(AA) [au] = 165.721860 


            DFT-D V3
 parameters
 s6 scaling factor         :     1.0000 
 rs6 scaling factor        :     1.2810 
 s8 scaling factor         :     1.0000 
 rs8 scaling factor        :     1.0940 
 Damping factor alpha6     :    14.0000 
 Damping factor alpha8     :    16.0000 
 ad hoc parameters k1-k3   :    16.0000     1.3333    -4.0000 

 Edisp/kcal,au: -0.046543563014  -0.000074171881 
 E6   /kcal   :  -0.005941087 
 E8   /kcal   :  -0.040602476 
 % E8         :  87.235426608 

-------------------------   ----------------
Dispersion correction           -0.000074172
-------------------------   ----------------


-------------------------   --------------------
FINAL SINGLE POINT ENERGY      -337.630967294222
-------------------------   --------------------



           ************************************************************
           *        Program running with 18 parallel MPI-processes    *
           *              working on a common directory               *
           ************************************************************
------------------------------------------------------------------------------
                         ORCA SCF GRADIENT CALCULATION
------------------------------------------------------------------------------

 ... reading COSX grid (gridx3)
Gradient of the Kohn-Sham DFT energy:
Kohn-Sham wavefunction type      ... UKS
Hartree-Fock exchange scaling    ...    0.196
Number of operators              ...    2
Number of atoms                  ...    4
Basis set dimensions             ...  157
Integral neglect threshold       ... 2.5e-11
Integral primitive cutoff        ... 2.5e-12
SHARK Integral package           ... ON

Nuc. rep. gradient       (SHARK) ... done (  0.0 sec)
HCore & Overlap gradient (SHARK) ... done (  0.0 sec)
RI-J gradient            (SHARK) ... done (  0.4 sec)
COSX-gradient                    ... done (  0.4 sec)
Exchange-correlation gradient    ... done
Dispersion correction            ... done

------------------
CARTESIAN GRADIENT
------------------

WARNING: THERE ARE 3 CONSTRAINED CARTESIAN COORDINATES
   1   C   :    0.000002241    0.000000022    0.026980434
   2   F   :   -0.007714593   -0.000000070   -0.008809484
   3   F   :    0.004243343   -0.007280214   -0.009350885
   4   F   :    0.004243285    0.007280371   -0.009351168

Difference to translation invariance:
           :    0.0007742754    0.0000001085   -0.0005311038

Difference to rotation invariance:
           :    0.0000006445   -0.0019192907   -0.0000004633

Norm of the cartesian gradient     ...    0.0343797310
RMS gradient                       ...    0.0099245735
MAX gradient                       ...    0.0269804336

-------
TIMINGS
-------

Total SCF gradient time            ...        1.421 sec

One electron gradient       ....       0.012 sec  (  0.9%)
RI-J Coulomb gradient       ....       0.407 sec  ( 28.6%)
COSX gradient               ....       0.438 sec  ( 30.8%)
XC gradient                 ....       0.166 sec  ( 11.7%)

Maximum memory used throughout the entire SCFGRAD-calculation: 37.2 MB
------------------------------------------------------------------------------
                         ORCA GEOMETRY RELAXATION STEP
------------------------------------------------------------------------------

Reading the OPT-File                    .... done
Getting information on internals        .... done
Copying old internal coords+grads       .... done
Making the new internal coordinates     .... (new redundants).... done
Validating the new internal coordinates .... (new redundants).... done
Calculating the B-matrix                .... done
Calculating the G,G- and P matrices     .... done
Transforming gradient to internals      .... done
Projecting the internal gradient        .... done
Number of atoms                         ....   4
Number of internal coordinates          ....   7
Current Energy                          ....  -337.630967294 Eh
Current gradient norm                   ....     0.034379731 Eh/bohr
Maximum allowed component of the step   ....  0.300
Current trust radius                    ....  0.300
Evaluating the initial hessian          ....  (Almloef) done
Projecting the Hessian                  .... done
Forming the augmented Hessian           .... done
Diagonalizing the augmented Hessian     .... done
Last element of RFO vector              ....  0.999931786
Lowest eigenvalues of augmented Hessian:
 -0.000093461  0.684895726  0.684895726  0.684989187 1000.000000000
Length of the computed step             ....  0.011680808
The final length of the internal step   ....  0.011680808
Converting the step to cartesian space:
 Initial RMS(Int)=    0.0044149303
Transforming coordinates:
 Iter   0:  RMS(Cart)=    0.0032208395 RMS(Int)=    0.0044149309
 Iter   1:  RMS(Cart)=    0.0000000019 RMS(Int)=    0.0000000035
Imposing constraints:
 Iter   0:  RMS(Cart)=    0.0000000013 RMS(Int)=    0.0000000031
CONVERGED
done
Storing new coordinates                 .... done

                                .--------------------.
          ----------------------|Geometry convergence|-------------------------
          Item                value                   Tolerance       Converged
          ---------------------------------------------------------------------
          RMS gradient        0.0030241795            0.0001000000      NO
          MAX gradient        0.0047358668            0.0003000000      NO
          RMS step            0.0044149303            0.0020000000      NO
          MAX step            0.0069137833            0.0040000000      NO
          ........................................................
          Max(Bonds)      0.0037      Max(Angles)    0.00
          Max(Dihed)        0.00      Max(Improp)    0.00
          ---------------------------------------------------------------------

The optimization has not yet converged - more geometry cycles are needed


    ---------------------------------------------------------------------------
                         Redundant Internal Coordinates
                            (Angstroem and degrees)

        Definition                    Value    dE/dq     Step     New-Value
    ----------------------------------------------------------------------------
     1. B(F   1,C   0)                1.3150 -0.004378  0.0034    1.3184   
     2. B(F   2,C   0)                1.3150 -0.004736  0.0037    1.3187   
     3. B(F   3,C   0)                1.3150 -0.004736  0.0037    1.3187   
     4. A(F   2,C   0,F   3)          109.00 -0.017802   -0.00    109.00 C 
     5. A(F   1,C   0,F   2)          109.00 -0.006517   -0.00    109.00 C 
     6. A(F   1,C   0,F   3)          109.00 -0.006517   -0.00    109.00 C 
     7. I(F   1,F   3,F   2,C   0)     55.90  0.021264   -0.00     55.90   
    ----------------------------------------------------------------------------

         *************************************************************
         *                GEOMETRY OPTIMIZATION CYCLE   2            *
         *************************************************************
---------------------------------
CARTESIAN COORDINATES (ANGSTROEM)
---------------------------------
  C      0.000077    0.000000    0.000912
  F      1.239419    0.000000   -0.448714
  F     -0.619748    1.073540   -0.448742
  F     -0.619748   -1.073540   -0.448742

----------------------------
CARTESIAN COORDINATES (A.U.)
----------------------------
  NO LB      ZA    FRAG     MASS         X           Y           Z
   0 C     6.0000    0    12.011    0.000146    0.000000    0.001724
   1 F     9.0000    0    18.998    2.342162    0.000000   -0.847946
   2 F     9.0000    0    18.998   -1.171154    2.028697   -0.847999
   3 F     9.0000    0    18.998   -1.171154   -2.028697   -0.847999

--------------------------------
INTERNAL COORDINATES (ANGSTROEM)
--------------------------------
 C      0   0   0     0.000000000000     0.00000000     0.00000000
 F      1   0   0     1.318381812508     0.00000000     0.00000000
 F      1   2   0     1.318658594714   108.99999994     0.00000000
 F      1   2   3     1.318658616531   108.99999994   118.86382261

---------------------------
INTERNAL COORDINATES (A.U.)
---------------------------
 C      0   0   0     0.000000000000     0.00000000     0.00000000
 F      1   0   0     2.491380565582     0.00000000     0.00000000
 F      1   2   0     2.491903608151   108.99999994     0.00000000
 F      1   2   3     2.491903649378   108.99999994   118.86382261



           ************************************************************
           *        Program running with 18 parallel MPI-processes    *
           *              working on a common directory               *
           ************************************************************
------------------------------------------------------------------------------
                   ___                                                        
                  /   \      - P O W E R E D   B Y -                         
                 /     \                                                     
                 |  |  |   _    _      __       _____    __    __             
                 |  |  |  | |  | |    /  \     |  _  \  |  |  /  |          
                  \  \/   | |  | |   /    \    | | | |  |  | /  /          
                 / \  \   | |__| |  /  /\  \   | |_| |  |  |/  /          
                |  |  |   |  __  | /  /__\  \  |    /   |      \           
                |  |  |   | |  | | |   __   |  |    \   |  |\   \          
                \     /   | |  | | |  |  |  |  | |\  \  |  | \   \       
                 \___/    |_|  |_| |__|  |__|  |_| \__\ |__|  \__/        
                                                                              
                      - O R C A' S   B I G   F R I E N D -                    
                                      &                                       
                       - I N T E G R A L  F E E D E R -                       
                                                                              
 v1 FN, 2020, v2 2021                                                         
------------------------------------------------------------------------------


Reading SHARK input file /beegfs/scratch/ispackman/PFAS_EPR_calcs/benchmark/JChemEd_CF3_radical/CF3_radical_109.0_degrees_IN-PROGRESS/CF3_radical_109.0_degrees.SHARKINP.tmp ... ok
----------------------
SHARK INTEGRAL PACKAGE
----------------------

Number of atoms                             ...      4
Number of basis functions                   ...    157
Number of shells                            ...     55
Maximum angular momentum                    ...      3
Integral batch strategy                     ... SHARK/LIBINT Hybrid
RI-J (if used) integral strategy            ... SPLIT-RIJ (Revised 2003 algorithm where possible)
Printlevel                                  ...      1
Contraction scheme used                     ... SEGMENTED contraction
Coulomb Range Separation                    ... NOT USED
Exchange Range Separation                   ... Long Range
   Mu parameter                             ...  0.250000
   Scaling (regular/separated)              ...  0.195728  0.804272
Finite Nucleus Model                        ... NOT USED
Auxiliary Coulomb fitting basis             ... AVAILABLE
   # of basis functions in Aux-J            ...    196
   # of shells in Aux-J                     ...     60
   Maximum angular momentum in Aux-J        ...      4
Auxiliary J/K fitting basis                 ... NOT available
Auxiliary Correlation fitting basis         ... NOT available
Auxiliary 'external' fitting basis          ... NOT available
Integral threshold                          ...     2.500000e-11
Primitive cut-off                           ...     2.500000e-12
Primitive pair pre-selection threshold      ...     2.500000e-12

Calculating pre-screening integrals         ... done (  0.1 sec) Dimension = 55
Organizing shell pair data                  ... done (  0.0 sec)
Shell pair information
Total number of shell pairs                 ...      1540
Shell pairs after pre-screening             ...      1504
Total number of primitive shell pairs       ...      4274
Primitive shell pairs kept                  ...      3545
          la=0 lb=0:    282 shell pairs
          la=1 lb=0:    354 shell pairs
          la=1 lb=1:    120 shell pairs
          la=2 lb=0:    276 shell pairs
          la=2 lb=1:    180 shell pairs
          la=2 lb=2:     78 shell pairs
          la=3 lb=0:     96 shell pairs
          la=3 lb=1:     60 shell pairs
          la=3 lb=2:     48 shell pairs
          la=3 lb=3:     10 shell pairs

Calculating one electron integrals          ... done (  0.0 sec)
Calculating RI/J V-Matrix + Cholesky decomp.... done (  0.0 sec)
Calculating Nuclear repulsion               ... done (  0.0 sec) ENN=    124.909926882181 Eh

SHARK setup successfully completed in   0.3 seconds

Maximum memory used throughout the entire GTOINT-calculation: 15.2 MB


           ************************************************************
           *        Program running with 18 parallel MPI-processes    *
           *              working on a common directory               *
           ************************************************************

Diagonalization of the overlap matrix:
Smallest eigenvalue                        ... 3.277e-04
Time for diagonalization                   ...    0.008 sec
Threshold for overlap eigenvalues          ... 1.000e-08
Number of eigenvalues below threshold      ... 0
Time for construction of square roots      ...    0.018 sec
Total time needed                          ...    0.027 sec

-------------------
DFT GRID GENERATION
-------------------

General Integration Accuracy     IntAcc      ... 4.388
Radial Grid Type                 RadialGrid  ... OptM3 with GC (2021)
Angular Grid (max. ang.)         AngularGrid ... 4 (Lebedev-302)
Angular grid pruning method      GridPruning ... 4 (adaptive)
Weight generation scheme         WeightScheme... Becke
Basis function cutoff            BFCut       ... 1.0000e-11
Integration weight cutoff        WCut        ... 1.0000e-14
Angular grids for H and He will be reduced by one unit
Partially contracted basis set               ... off
Rotationally invariant grid construction     ... off

Total number of grid points                  ...    25776
Total number of batches                      ...      405
Average number of points per batch           ...       63
Average number of grid points per atom       ...     6444
Time for grid setup =    0.159 sec

--------------------
COSX GRID GENERATION
--------------------

GRIDX 1
-------
General Integration Accuracy     IntAcc      ... 3.816
Radial Grid Type                 RadialGrid  ... OptM3 with GC (2021)
Angular Grid (max. ang.)         AngularGrid ... 1 (Lebedev-50)
Angular grid pruning method      GridPruning ... 4 (adaptive)
Weight generation scheme         WeightScheme... Becke
Basis function cutoff            BFCut       ... 1.0000e-11
Integration weight cutoff        WCut        ... 1.0000e-14
Angular grids for H and He will be reduced by one unit
Partially contracted basis set               ... on
Rotationally invariant grid construction     ... off

Total number of grid points                  ...     3270
Total number of batches                      ...       53
Average number of points per batch           ...       61
Average number of grid points per atom       ...      818
UseSFitting                                  ... on

GRIDX 2
-------
General Integration Accuracy     IntAcc      ... 4.020
Radial Grid Type                 RadialGrid  ... OptM3 with GC (2021)
Angular Grid (max. ang.)         AngularGrid ... 2 (Lebedev-110)
Angular grid pruning method      GridPruning ... 4 (adaptive)
Weight generation scheme         WeightScheme... Becke
Basis function cutoff            BFCut       ... 1.0000e-11
Integration weight cutoff        WCut        ... 1.0000e-14
Angular grids for H and He will be reduced by one unit
Partially contracted basis set               ... on
Rotationally invariant grid construction     ... off

Total number of grid points                  ...     9129
Total number of batches                      ...      145
Average number of points per batch           ...       62
Average number of grid points per atom       ...     2282
UseSFitting                                  ... on

GRIDX 3
-------
General Integration Accuracy     IntAcc      ... 4.338
Radial Grid Type                 RadialGrid  ... OptM3 with GC (2021)
Angular Grid (max. ang.)         AngularGrid ... 3 (Lebedev-194)
Angular grid pruning method      GridPruning ... 4 (adaptive)
Weight generation scheme         WeightScheme... Becke
Basis function cutoff            BFCut       ... 1.0000e-11
Integration weight cutoff        WCut        ... 1.0000e-14
Angular grids for H and He will be reduced by one unit
Partially contracted basis set               ... on
Rotationally invariant grid construction     ... off

Total number of grid points                  ...    19678
Total number of batches                      ...      309
Average number of points per batch           ...       63
Average number of grid points per atom       ...     4920
[...]
  VA   - Mayer's total valence
  BVA  - Mayer's bonded valence
  FA   - Mayer's free valence

  ATOM       NA         ZA         QA         VA         BVA        FA
  0 C      5.4618     6.0000     0.5382     3.8054     3.1569     0.6485
  1 F      9.1792     9.0000    -0.1792     1.0723     1.0686     0.0038
  2 F      9.1795     9.0000    -0.1795     1.0719     1.0682     0.0037
  3 F      9.1795     9.0000    -0.1795     1.0720     1.0682     0.0037

  Mayer bond orders larger than 0.100000
B(  0-C ,  1-F ) :   1.0525 B(  0-C ,  2-F ) :   1.0522 B(  0-C ,  3-F ) :   1.0522 


-------
TIMINGS
-------

Total SCF time: 0 days 0 hours 0 min 4 sec 

Total time                  ....       4.735 sec
Sum of individual times     ....       4.018 sec  ( 84.9%)

Fock matrix formation       ....       3.165 sec  ( 66.8%)
  Split-RI-J                ....       0.508 sec  ( 16.0% of F)
  Chain of spheres X        ....       1.293 sec  ( 40.9% of F)
  XC integration            ....       0.552 sec  ( 17.4% of F)
    Basis function eval.    ....       0.038 sec  (  6.9% of XC)
    Density eval.           ....       0.047 sec  (  8.5% of XC)
    XC-Functional eval.     ....       0.020 sec  (  3.6% of XC)
    XC-Potential eval.      ....       0.066 sec  ( 12.0% of XC)
Diagonalization             ....       0.117 sec  (  2.5%)
Density matrix formation    ....       0.008 sec  (  0.2%)
Population analysis         ....       0.139 sec  (  2.9%)
Initial guess               ....       0.019 sec  (  0.4%)
Orbital Transformation      ....       0.000 sec  (  0.0%)
Orbital Orthonormalization  ....       0.010 sec  (  0.2%)
DIIS solution               ....       0.045 sec  (  1.0%)
Grid generation             ....       0.524 sec  ( 11.1%)

Maximum memory used throughout the entire SCF-calculation: 63.2 MB


-------------------------------------------------------------------------------
                          DFT DISPERSION CORRECTION                            
                                                                               
                              DFTD3 V3.1  Rev 1                                
                              USING zero damping                               
-------------------------------------------------------------------------------
The omegaB97X-D3 functional is recognized. Fit by Chai et al.
Active option DFTDOPT                   ...         3   

molecular C6(AA) [au] = 165.732112 


            DFT-D V3
 parameters
 s6 scaling factor         :     1.0000 
 rs6 scaling factor        :     1.2810 
 s8 scaling factor         :     1.0000 
 rs8 scaling factor        :     1.0940 
 Damping factor alpha6     :    14.0000 
 Damping factor alpha8     :    16.0000 
 ad hoc parameters k1-k3   :    16.0000     1.3333    -4.0000 

 Edisp/kcal,au: -0.047761596011  -0.000076112940 
 E6   /kcal   :  -0.006099629 
 E8   /kcal   :  -0.041661967 
 % E8         :  87.229010205 

-------------------------   ----------------
Dispersion correction           -0.000076113
-------------------------   ----------------


-------------------------   --------------------
FINAL SINGLE POINT ENERGY      -337.631027460670
-------------------------   --------------------

                                *** OPTIMIZATION RUN DONE ***

                            ***************************************
                            *     ORCA property calculations      *
                            ***************************************

                                    ---------------------
                                    Active property flags
                                    ---------------------
   (+) Dipole Moment


------------------------------------------------------------------------------
                       ORCA ELECTRIC PROPERTIES CALCULATION
------------------------------------------------------------------------------

Dipole Moment Calculation                       ... on
Quadrupole Moment Calculation                   ... off
Polarizability Calculation                      ... off
GBWName                                         ... /beegfs/scratch/ispackman/PFAS_EPR_calcs/benchmark/JChemEd_CF3_radical/CF3_radical_109.0_degrees_IN-PROGRESS/CF3_radical_109.0_degrees.gbw
Electron density                                ... /beegfs/scratch/ispackman/PFAS_EPR_calcs/benchmark/JChemEd_CF3_radical/CF3_radical_109.0_degrees_IN-PROGRESS/CF3_radical_109.0_degrees.scfp
The origin for moment calculation is the CENTER OF MASS  = (-0.000026, -0.000000 -0.700119)

-------------
DIPOLE MOMENT
-------------
                                X             Y             Z
Electronic contribution:      0.00087       0.00000      -0.04228
Nuclear contribution   :      0.00009       0.00000       0.21767
                        -----------------------------------------
Total Dipole Moment    :      0.00095       0.00000       0.17539
                        -----------------------------------------
Magnitude (a.u.)       :      0.17539
Magnitude (Debye)      :      0.44581



--------------------
Rotational spectrum 
--------------------
 
Rotational constants in cm-1:     0.367811     0.367638     0.192285 
Rotational constants in MHz : 11026.706264 11021.501652  5764.554102 

 Dipole components along the rotational axes: 
x,y,z [a.u.] :    -0.000000     0.000963     0.175390 
x,y,z [Debye]:    -0.000001     0.002448     0.445806 

 


           ************************************************************
           *        Program running with 18 parallel MPI-processes    *
           *              working on a common directory               *
           ************************************************************

-------------------------------------------------------------------------------
                               ORCA SCF HESSIAN
-------------------------------------------------------------------------------

                   --------- SHARK INITIALIZATION DONE ---------

Hessian of the Kohn-Sham DFT energy:
Kohn-Sham wavefunction type                      ... UKS
Hartree-Fock exchange scaling                    ...    0.196
Number of operators                              ...    2
Number of atoms                                  ...    4
Basis set dimensions                             ...  157
Integral neglect threshold                       ... 2.5e-11
Integral primitive cutoff                        ... 2.5e-12

Setting up DFT Hessian calculations              ... 

HESS GRID
---------

General Integration Accuracy     IntAcc      ... 4.629
Radial Grid Type                 RadialGrid  ... OptM3 with GC (2021)
Angular Grid (max. ang.)         AngularGrid ... 5 (Lebedev-434)
Angular grid pruning method      GridPruning ... 4 (adaptive)
Weight generation scheme         WeightScheme... Becke
Basis function cutoff            BFCut       ... 1.0000e-11
Integration weight cutoff        WCut        ... 1.0000e-14
Angular grids for H and He will be reduced by one unit
Partially contracted basis set               ... off
Rotationally invariant grid construction     ... off

Total number of grid points                  ...    39957
Total number of batches                      ...      627
Average number of points per batch           ...       63
Average number of grid points per atom       ...     9989

Building densities                               ... done   (      0.0 sec)
Calculating rho(r) on the grid                   ... done   (      0.1 sec)
Building xc-kernel on the grid                   ... done   (      0.1 sec)
                                                     done   (      0.6 sec)

Nuclear repulsion Hessian  (SHARK)               ... done   (      0.0 sec)

----------------------------------------------
Forming right-hand sides of CP-SCF equations     ...
----------------------------------------------
One electron integral derivatives  (SHARK)       ... done   (      0.0 sec)
Transforming the overlap derivative matrices     ... done   (      0.0 sec)
Making the Q(x) pseudodensities                  ... done   (      0.0 sec)
Adding the E*S(x)*S(y) terms to the Hessian      ... done   (      0.0 sec)
Calculating energy weighted overlap derivatives  ... done   (      0.0 sec)
Two electron integral derivatives (SHARK-RI)     ... done   (      2.5 sec)
Exchange-correlation integral derivatives        ... done   (      2.2 sec)
tr(F(y)Q(x)) contribution to the Hessian         ... done   (      0.0 sec)
Response fock operator R(S(x)) (SHARK-RIJCOSX)   ... done   (      0.9 sec)
XC Response fock operator R(S(x))                ... done   (      0.4 sec)
tr(F(y)S(x)) contribution to the Hessian         ... done   (      0.0 sec)
Transforming and finalizing RHSs                 ... done   (      0.0 sec)

----------------------------------------------
Solving the CP-SCF equations (RIJCOSX)           ...
----------------------------------------------
     CP-SCF ITERATION   0:   1.6052e-01 (   0.5 sec   0/ 12 done)
     CP-SCF ITERATION   1:   4.2329e-02 (   0.5 sec   0/ 12 done)
     CP-SCF ITERATION   2:   1.2908e-02 (   0.5 sec   0/ 12 done)
     CP-SCF ITERATION   3:   3.4529e-03 (   0.5 sec   0/ 12 done)
     CP-SCF ITERATION   4:   1.1090e-03 (   0.5 sec   0/ 12 done)
     CP-SCF ITERATION   5:   4.6252e-04 (   0.5 sec   1/ 12 done)
     CP-SCF ITERATION   6:   1.2483e-04 (   0.5 sec   9/ 12 done)
     CP-SCF ITERATION   7:   2.7524e-05 (   0.4 sec  12/ 12 done)
                    *** THE CP-SCF HAS CONVERGED ***

                                                 ... done   (      3.9 sec)
Forming perturbed density Hessian contributions  ... done   (      0.0 sec)
2nd integral derivative contribs (SHARK-RI)      ... done   (      6.5 sec)
Exchange-correlation Hessian                     ... done   (      0.9 sec)
Dispersion correction in the Hessian             ... done   (      0.1 sec)
Dipole derivatives                               ... (center of mass: -0.000026, -0.000000 -0.700119)done   (      0.1 sec)

Total SCF Hessian time: 0 days 0 hours 0 min 19 sec 

Writing the Hessian file to the disk             ... done


Maximum memory used throughout the entire SCFHESS-calculation: 146.1 MB

-----------------------
VIBRATIONAL FREQUENCIES
-----------------------

Scaling factor for frequencies =  1.000000000  (already applied!)

   0:         0.00 cm**-1
   1:         0.00 cm**-1
   2:         0.00 cm**-1
   3:         0.00 cm**-1
   4:         0.00 cm**-1
   5:         0.00 cm**-1
   6:       526.44 cm**-1
   7:       526.48 cm**-1
   8:       725.25 cm**-1
   9:      1113.58 cm**-1
  10:      1233.59 cm**-1
  11:      1234.84 cm**-1


------------
NORMAL MODES
------------

These modes are the Cartesian displacements weighted by the diagonal matrix
M(i,i)=1/sqrt(m[i]) where m[i] is the mass of the displaced atom
Thus, these vectors are normalized but *not* orthogonal

                  0          1          2          3          4          5    
      0       0.000000   0.000000   0.000000   0.000000   0.000000   0.000000
      1       0.000000   0.000000   0.000000   0.000000   0.000000   0.000000
      2       0.000000   0.000000   0.000000   0.000000   0.000000   0.000000
      3       0.000000   0.000000   0.000000   0.000000   0.000000   0.000000
      4       0.000000   0.000000   0.000000   0.000000   0.000000   0.000000
      5       0.000000   0.000000   0.000000   0.000000   0.000000   0.000000
      6       0.000000   0.000000   0.000000   0.000000   0.000000   0.000000
      7       0.000000   0.000000   0.000000   0.000000   0.000000   0.000000
      8       0.000000   0.000000   0.000000   0.000000   0.000000   0.000000
      9       0.000000   0.000000   0.000000   0.000000   0.000000   0.000000
     10       0.000000   0.000000   0.000000   0.000000   0.000000   0.000000
     11       0.000000   0.000000   0.000000   0.000000   0.000000   0.000000
                  6          7          8          9         10         11    
      0      -0.000799  -0.322286  -0.000343   0.005385  -0.000237  -0.896543
      1      -0.322228   0.000799  -0.000000   0.000001  -0.896576   0.000237
      2       0.000002   0.000702   0.600792   0.818912   0.000002   0.004210
      3      -0.001173  -0.473302  -0.443472   0.281105   0.000089   0.333151
      4       0.609183  -0.001510   0.000000  -0.000000   0.046514  -0.000012
      5      -0.000123  -0.049444  -0.126713  -0.171798  -0.000037  -0.137977
      6       0.469465   0.337368   0.221845  -0.142255  -0.123336   0.116866
      7      -0.201570   0.469150  -0.384616   0.245469   0.260129  -0.121950
      8      -0.042588   0.024606  -0.126561  -0.172969  -0.118687   0.067689
      9      -0.467787   0.339691   0.221844  -0.142255   0.123397   0.116800
     10      -0.203893  -0.468145   0.384616  -0.245470   0.260194   0.121812
     11       0.042709   0.024394  -0.126561  -0.172969   0.118722   0.067626


-----------
IR SPECTRUM
-----------

 Mode   freq       eps      Int      T**2         TX        TY        TZ
       cm**-1   L/(mol*cm) km/mol    a.u.
----------------------------------------------------------------------------
  6:    526.44   0.000296    1.49  0.000175  (-0.000033 -0.013238  0.000000)
  7:    526.48   0.000297    1.50  0.000176  (-0.013270  0.000033  0.000046)
  8:    725.25   0.002369   11.97  0.001019  (-0.000088 -0.000000  0.031926)
  9:   1113.58   0.008464   42.78  0.002372  ( 0.000795  0.000000  0.048697)
 10:   1233.59   0.070127  354.39  0.017740  (-0.000035 -0.133193  0.000000)
 11:   1234.84   0.070188  354.70  0.017737  (-0.133182  0.000035  0.000205)

* The epsilon (eps) is given for a Dirac delta lineshape.
** The dipole moment derivative (T) already includes vibrational overlap.

The first frequency considered to be a vibration is 6
The total number of vibrations considered is 6


--------------------------
THERMOCHEMISTRY AT 298.15K
--------------------------

Temperature         ... 298.15 K
Pressure            ... 1.00 atm
Total Mass          ... 69.00 AMU

Throughout the following assumptions are being made:
  (1) The electronic state is orbitally nondegenerate
      but the spin degeneracy is treated
  (2) There are no thermally accessible electronically excited states
  (3) Hindered rotations indicated by low frequency modes are not
      treated as such but are treated as vibrations and this may
      cause some error
  (4) All equations used are the standard statistical mechanics
      equations for an ideal gas
  (5) All vibrations are strictly harmonic

freq.     526.44  E(vib)   ...       0.13 
freq.     526.48  E(vib)   ...       0.13 
freq.     725.25  E(vib)   ...       0.06 
freq.    1113.58  E(vib)   ...       0.01 
freq.    1233.59  E(vib)   ...       0.01 
freq.    1234.84  E(vib)   ...       0.01 

------------
INNER ENERGY
------------

The inner energy is: U= E(el) + E(ZPE) + E(vib) + E(rot) + E(trans)
    E(el)   - is the total energy from the electronic structure calculation
              = E(kin-el) + E(nuc-el) + E(el-el) + E(nuc-nuc)
    E(ZPE)  - the the zero temperature vibrational energy from the frequency calculation
    E(vib)  - the the finite temperature correction to E(ZPE) due to population
              of excited vibrational states
    E(rot)  - is the rotational thermal energy
    E(trans)- is the translational thermal energy

Summary of contributions to the inner energy U:
Electronic energy                ...   -337.63102746 Eh
Zero point energy                ...      0.01221139 Eh       7.66 kcal/mol
Thermal vibrational correction   ...      0.00056632 Eh       0.36 kcal/mol
Thermal rotational correction    ...      0.00141627 Eh       0.89 kcal/mol
Thermal translational correction ...      0.00141627 Eh       0.89 kcal/mol
-----------------------------------------------------------------------
Total thermal energy                   -337.61541720 Eh


Summary of corrections to the electronic energy:
(perhaps to be used in another calculation)
Total thermal correction                  0.00339886 Eh       2.13 kcal/mol
Non-thermal (ZPE) correction              0.01221139 Eh       7.66 kcal/mol
-----------------------------------------------------------------------
Total correction                          0.01561026 Eh       9.80 kcal/mol


--------
ENTHALPY
--------

The enthalpy is H = U + kB*T
                kB is Boltzmann's constant
Total free energy                 ...   -337.61541720 Eh 
Thermal Enthalpy correction       ...      0.00094421 Eh       0.59 kcal/mol
-----------------------------------------------------------------------
Total Enthalpy                    ...   -337.61447300 Eh


Note: Rotational entropy computed according to Herzberg 
Infrared and Raman Spectra, Chapter V,1, Van Nostrand Reinhold, 1945 
Point Group:  Cs, Symmetry Number:   1  
Rotational constants in cm-1:     0.367811     0.367638     0.192285 

Vibrational entropy computed according to the QRRHO of S. Grimme
Chem.Eur.J. 2012 18 9955


-------
ENTROPY
-------

The entropy contributions are T*S = T*(S(el)+S(vib)+S(rot)+S(trans))
     S(el)   - electronic entropy
     S(vib)  - vibrational entropy
     S(rot)  - rotational entropy
     S(trans)- translational entropy
The entropies will be listed as multiplied by the temperature to get
units of energy

Electronic entropy                ...      0.00065446 Eh      0.41 kcal/mol
Vibrational entropy               ...      0.00076049 Eh      0.48 kcal/mol
Rotational entropy                ...      0.01123376 Eh      7.05 kcal/mol
Translational entropy             ...      0.01834582 Eh     11.51 kcal/mol
-----------------------------------------------------------------------
Final entropy term                ...      0.03099452 Eh     19.45 kcal/mol

In case the symmetry of your molecule has not been determined correctly
or in case you have a reason to use a different symmetry number we print 
out the resulting rotational entropy values for sn=1,12 :
 --------------------------------------------------------
|  sn= 1 | S(rot)=       0.01123376 Eh      7.05 kcal/mol|
|  sn= 2 | S(rot)=       0.01057930 Eh      6.64 kcal/mol|
|  sn= 3 | S(rot)=       0.01019647 Eh      6.40 kcal/mol|
|  sn= 4 | S(rot)=       0.00992485 Eh      6.23 kcal/mol|
|  sn= 5 | S(rot)=       0.00971416 Eh      6.10 kcal/mol|
|  sn= 6 | S(rot)=       0.00954202 Eh      5.99 kcal/mol|
|  sn= 7 | S(rot)=       0.00939647 Eh      5.90 kcal/mol|
|  sn= 8 | S(rot)=       0.00927039 Eh      5.82 kcal/mol|
|  sn= 9 | S(rot)=       0.00915918 Eh      5.75 kcal/mol|
|  sn=10 | S(rot)=       0.00905970 Eh      5.69 kcal/mol|
|  sn=11 | S(rot)=       0.00896971 Eh      5.63 kcal/mol|
|  sn=12 | S(rot)=       0.00888756 Eh      5.58 kcal/mol|
 --------------------------------------------------------


-------------------
GIBBS FREE ENERGY
-------------------

The Gibbs free energy is G = H - T*S

Total enthalpy                    ...   -337.61447300 Eh 
Total entropy correction          ...     -0.03099452 Eh    -19.45 kcal/mol
-----------------------------------------------------------------------
Final Gibbs free energy         ...   -337.64546752 Eh

For completeness - the Gibbs free energy minus the electronic energy
G-E(el)                           ...     -0.01444006 Eh     -9.06 kcal/mol


Timings for individual modules:

Sum of individual times         ...      126.294 sec (=   2.105 min)
GTO integral calculation        ...       38.906 sec (=   0.648 min)  30.8 %
SCF iterations                  ...       51.980 sec (=   0.866 min)  41.2 %
SCF Gradient evaluation         ...       13.396 sec (=   0.223 min)  10.6 %
Geometry relaxation             ...        0.200 sec (=   0.003 min)   0.2 %
Analytical frequency calculation...       21.812 sec (=   0.364 min)  17.3 %
                             ****ORCA TERMINATED NORMALLY****
TOTAL RUN TIME: 0 days 0 hours 2 minutes 18 seconds 424 msec

slurmID:    32260058
totalRuntime[s]:    138.473390199
