
                                 *****************
                                 * O   R   C   A *
                                 *****************

                                            #,                                       
                                            ###                                      
                                            ####                                     
                                            #####                                    
                                            ######                                   
                                           ########,                                 
                                     ,,################,,,,,                         
                               ,,#################################,,                 
                          ,,##########################################,,             
                       ,#########################################, ''#####,          
                    ,#############################################,,   '####,        
                  ,##################################################,,,,####,       
                ,###########''''           ''''###############################       
              ,#####''   ,,,,##########,,,,          '''####'''          '####       
            ,##' ,,,,###########################,,,                        '##       
           ' ,,###''''                  '''############,,,                           
         ,,##''                                '''############,,,,        ,,,,,,###''
      ,#''                                            '''#######################'''  
     '                                                          ''''####''''         
             ,#######,   #######,   ,#######,      ##                                
            ,#'     '#,  ##    ##  ,#'     '#,    #''#        ######   ,####,        
            ##       ##  ##   ,#'  ##            #'  '#       #        #'  '#        
            ##       ##  #######   ##           ,######,      #####,   #    #        
            '#,     ,#'  ##    ##  '#,     ,#' ,#      #,         ##   #,  ,#        
             '#######'   ##     ##  '#######'  #'      '#     #####' # '####'        



                  #######################################################
                  #                        -***-                        #
                  #          Department of theory and spectroscopy      #
                  #    Directorship and core code : Frank Neese         #
                  #        Max Planck Institute fuer Kohlenforschung    #
                  #                Kaiser Wilhelm Platz 1               #
                  #                 D-45470 Muelheim/Ruhr               #
                  #                      Germany                        #
                  #                                                     #
                  #                  All rights reserved                #
                  #                        -***-                        #
                  #######################################################


                         Program Version 5.0.4 -  RELEASE  -


 With contributions from (in alphabetic order):
   Daniel Aravena         : Magnetic Suceptibility
   Michael Atanasov       : Ab Initio Ligand Field Theory (pilot matlab implementation)
   Alexander A. Auer      : GIAO ZORA, VPT2 properties, NMR spectrum
   Ute Becker             : Parallelization
   Giovanni Bistoni       : ED, misc. LED, open-shell LED, HFLD
   Martin Brehm           : Molecular dynamics
   Dmytro Bykov           : SCF Hessian
   Vijay G. Chilkuri      : MRCI spin determinant printing, contributions to CSF-ICE
   Dipayan Datta          : RHF DLPNO-CCSD density
   Achintya Kumar Dutta   : EOM-CC, STEOM-CC
   Dmitry Ganyushin       : Spin-Orbit,Spin-Spin,Magnetic field MRCI
   Miquel Garcia          : C-PCM and meta-GGA Hessian, CC/C-PCM, Gaussian charge scheme
   Yang Guo               : DLPNO-NEVPT2, F12-NEVPT2, CIM, IAO-localization
   Andreas Hansen         : Spin unrestricted coupled pair/coupled cluster methods
   Benjamin Helmich-Paris : MC-RPA, TRAH-SCF, COSX integrals
   Lee Huntington         : MR-EOM, pCC
   Robert Izsak           : Overlap fitted RIJCOSX, COSX-SCS-MP3, EOM
   Marcus Kettner         : VPT2
   Christian Kollmar      : KDIIS, OOCD, Brueckner-CCSD(T), CCSD density, CASPT2, CASPT2-K
   Simone Kossmann        : Meta GGA functionals, TD-DFT gradient, OOMP2, MP2 Hessian
   Martin Krupicka        : Initial AUTO-CI
   Lucas Lang             : DCDCAS
   Marvin Lechner         : AUTO-CI (C++ implementation), FIC-MRCC
   Dagmar Lenk            : GEPOL surface, SMD
   Dimitrios Liakos       : Extrapolation schemes; Compound Job, initial MDCI parallelization
   Dimitrios Manganas     : Further ROCIS development; embedding schemes
   Dimitrios Pantazis     : SARC Basis sets
   Anastasios Papadopoulos: AUTO-CI, single reference methods and gradients
   Taras Petrenko         : DFT Hessian,TD-DFT gradient, ASA, ECA, R-Raman, ABS, FL, XAS/XES, NRVS
   Peter Pinski           : DLPNO-MP2, DLPNO-MP2 Gradient
   Christoph Reimann      : Effective Core Potentials
   Marius Retegan         : Local ZFS, SOC
   Christoph Riplinger    : Optimizer, TS searches, QM/MM, DLPNO-CCSD(T), (RO)-DLPNO pert. Triples
   Tobias Risthaus        : Range-separated hybrids, TD-DFT gradient, RPA, STAB
   Michael Roemelt        : Original ROCIS implementation
   Masaaki Saitow         : Open-shell DLPNO-CCSD energy and density
   Barbara Sandhoefer     : DKH picture change effects
   Avijit Sen             : IP-ROCIS
   Kantharuban Sivalingam : CASSCF convergence, NEVPT2, FIC-MRCI
   Bernardo de Souza      : ESD, SOC TD-DFT
   Georgi Stoychev        : AutoAux, RI-MP2 NMR, DLPNO-MP2 response
   Willem Van den Heuvel  : Paramagnetic NMR
   Boris Wezisla          : Elementary symmetry handling
   Frank Wennmohs         : Technical directorship


 We gratefully acknowledge several colleagues who have allowed us to
 interface, adapt or use parts of their codes:
   Stefan Grimme, W. Hujo, H. Kruse, P. Pracht,  : VdW corrections, initial TS optimization,
                  C. Bannwarth, S. Ehlert          DFT functionals, gCP, sTDA/sTD-DF
   Ed Valeev, F. Pavosevic, A. Kumar             : LibInt (2-el integral package), F12 methods
   Garnet Chan, S. Sharma, J. Yang, R. Olivares  : DMRG
   Ulf Ekstrom                                   : XCFun DFT Library
   Mihaly Kallay                                 : mrcc  (arbitrary order and MRCC methods)
   Jiri Pittner, Ondrej Demel                    : Mk-CCSD
   Frank Weinhold                                : gennbo (NPA and NBO analysis)
   Christopher J. Cramer and Donald G. Truhlar   : smd solvation model
   Lars Goerigk                                  : TD-DFT with DH, B97 family of functionals
   V. Asgeirsson, H. Jonsson                     : NEB implementation
   FAccTs GmbH                                   : IRC, NEB, NEB-TS, DLPNO-Multilevel, CI-OPT
                                                   MM, QMMM, 2- and 3-layer-ONIOM, Crystal-QMMM,
                                                   LR-CPCM, SF, NACMEs, symmetry and pop. for TD-DFT,
                                                   nearIR, NL-DFT gradient (VV10), updates on ESD,
                                                   ML-optimized integration grids
   S Lehtola, MJT Oliveira, MAL Marques          : LibXC Library
   Liviu Ungur et al                             : ANISO software


 Your calculation uses the libint2 library for the computation of 2-el integrals
 For citations please refer to: http://libint.valeyev.net

 Your ORCA version has been built with support for libXC version: 5.1.0
 For citations please refer to: https://tddft.org/programs/libxc/

 This ORCA versions uses:
   CBLAS   interface :  Fast vector & matrix operations
   LAPACKE interface :  Fast linear algebra routines
   SCALAPACK package :  Parallel linear algebra routines
   Shared memory     :  Shared parallel matrices
   BLAS/LAPACK       :  OpenBLAS 0.3.15  USE64BITINT DYNAMIC_ARCH NO_AFFINITY SkylakeX SINGLE_THREADED
        Core in use  :  SkylakeX
   Copyright (c) 2011-2014, The OpenBLAS Project


Your calculation utilizes the atom-pairwise dispersion correction
with the zero-damping scheme (D30)
Cite in your paper:
S.Grimme, J.Antony, S.Ehrlich and H.Krieg, J.Chem.Phys., 132, (2010), 154104 
   

XCFun DFT library Copyright 2009-2010 Ulf Ekstrom and contributors.
See http://admol.org/xcfun for more information.
This is free software; see the source code for copying conditions.
There is ABSOLUTELY NO WARRANTY; not even for MERCHANTABILITY or FITNESS FOR A PARTICULAR PURPOSE.
For details see the documentation.
Scientific users of this library should cite U. Ekstrom, L. Visscher, R. Bast, A. J. Thorvaldsen and K. Ruud;
J.Chem.Theor.Comp. 2010, DOI: 10.1021/ct100117s
XCFun Version 0.99 

================================================================================

----- Orbital basis set information -----
Your calculation utilizes the basis: def2-TZVPD
   F. Weigend and R. Ahlrichs, Phys. Chem. Chem. Phys. 7, 3297 (2005).
   D. Rappoport and F. Furche, J. Chem. Phys. 133 134105 (2010).

----- AuxJ basis set information -----
Your calculation utilizes the auxiliary basis: def2/J
   F. Weigend, Phys. Chem. Chem. Phys. 8, 1057 (2006).

================================================================================
                                        WARNINGS
                       Please study these warnings very carefully!
================================================================================


WARNING: Geometry Optimization
  ===> : Switching off AutoStart
         For restart on a previous wavefunction, please use MOREAD

INFO   : the flag for use of the SHARK integral package has been found!

================================================================================
                                       INPUT FILE
================================================================================
NAME = /beegfs/scratch/ispackman/PFAS_EPR_calcs/benchmark/JChemEd_CF3_radical/CF3_radical_98.0_degrees_IN-PROGRESS/CF3_radical_98.0_degrees.inp
|  1> ! UKS TightSCF wB97x-D3 def2-TZVPD xyzfile opt freq
|  2> 
|  3> # CF3 radical 98.0 degrees fixed
|  4> 
|  5> %maxcore 1000
|  6> %pal
|  7> nprocs 18
|  8> end
|  9> 
| 10> %geom Constraints
| 11>         { A * 0 * C }
| 12>     end
| 13> end
| 14> * xyz 0 2
| 15> C 0.00 0.00 0.00
| 16> F 1.1459745796 0.0000000000 -0.6449552411
| 17> F -0.5729872898 0.9924430980 -0.6449552411
| 18> F -0.5729872898 -0.9924430980 -0.6449552411
| 19> **                         ****END OF INPUT****
================================================================================

                       *****************************
                       * Geometry Optimization Run *
                       *****************************

Geometry optimization settings:
Update method            Update   .... BFGS
Choice of coordinates    CoordSys .... Z-matrix Internals
Initial Hessian          InHess   .... Almoef's Model

Convergence Tolerances:
Energy Change            TolE     ....  5.0000e-06 Eh
Max. Gradient            TolMAXG  ....  3.0000e-04 Eh/bohr
RMS Gradient             TolRMSG  ....  1.0000e-04 Eh/bohr
Max. Displacement        TolMAXD  ....  4.0000e-03 bohr
RMS Displacement         TolRMSD  ....  2.0000e-03 bohr
Strict Convergence                ....  False
------------------------------------------------------------------------------
                        ORCA OPTIMIZATION COORDINATE SETUP
------------------------------------------------------------------------------

The optimization will be done in new redundant internal coordinates
Making redundant internal coordinates   ...  (new redundants) done
Evaluating the initial hessian          ...  (Almloef) done
Evaluating the coordinates              ...  done
Calculating the B-matrix                .... done
Calculating the G-matrix                .... done
Diagonalizing the G-matrix              .... done
Imposing constraints:
 Iter   0:  RMS(Cart)=    0.0000000000 RMS(Int)=    0.0000000000
CONVERGED
Will constrain atom 0 coordinate 1 
Will constrain atom 0 coordinate 2 
Will constrain atom 1 coordinate 2 
The first mode is                       ....    1
The number of degrees of freedom        ....    6
Storing new coordinates                 .... done

    -----------------------------------------------------------------
                    Redundant Internal Coordinates


    -----------------------------------------------------------------
         Definition                    Initial Value    Approx d2E/dq
    -----------------------------------------------------------------
      1. B(F   1,C   0)                  1.3150         0.684896   
      2. B(F   2,C   0)                  1.3150         0.684896   
      3. B(F   3,C   0)                  1.3150         0.684896   
      4. A(F   2,C   0,F   3)           98.0000         0.440101 C 
      5. A(F   1,C   0,F   2)           98.0000         0.440101 C 
      6. A(F   1,C   0,F   3)           98.0000         0.440101 C 
      7. I(F   1,F   3,F   2,C   0)     77.7525         0.002675   
    -----------------------------------------------------------------

Number of atoms                         .... 4
Number of degrees of freedom            .... 7

         *************************************************************
         *                GEOMETRY OPTIMIZATION CYCLE   1            *
         *************************************************************
---------------------------------
CARTESIAN COORDINATES (ANGSTROEM)
---------------------------------
  C      0.000000    0.000000    0.000000
  F      1.145975    0.000000   -0.644955
  F     -0.572987    0.992443   -0.644955
  F     -0.572987   -0.992443   -0.644955

----------------------------
CARTESIAN COORDINATES (A.U.)
----------------------------
  NO LB      ZA    FRAG     MASS         X           Y           Z
   0 C     6.0000    0    12.011    0.000000    0.000000    0.000000
   1 F     9.0000    0    18.998    2.165578    0.000000   -1.218789
   2 F     9.0000    0    18.998   -1.082789    1.875446   -1.218789
   3 F     9.0000    0    18.998   -1.082789   -1.875446   -1.218789

--------------------------------
INTERNAL COORDINATES (ANGSTROEM)
--------------------------------
 C      0   0   0     0.000000000000     0.00000000     0.00000000
 F      1   0   0     1.315000000042     0.00000000     0.00000000
 F      1   2   0     1.315000000024    98.00000000     0.00000000
 F      1   2   3     1.315000000024    98.00000000    99.30405922

---------------------------
INTERNAL COORDINATES (A.U.)
---------------------------
 C      0   0   0     0.000000000000     0.00000000     0.00000000
 F      1   0   0     2.484989866187     0.00000000     0.00000000
 F      1   2   0     2.484989866151    98.00000000     0.00000000
 F      1   2   3     2.484989866151    98.00000000    99.30405922

---------------------
BASIS SET INFORMATION
---------------------
There are 2 groups of distinct atoms

 Group   1 Type C   : 12s6p3d1f contracted to 6s3p3d1f pattern {621111/411/111/1}
 Group   2 Type F   : 12s7p3d1f contracted to 6s4p3d1f pattern {621111/4111/111/1}

Atom   0C    basis set group =>   1
Atom   1F    basis set group =>   2
Atom   2F    basis set group =>   2
Atom   3F    basis set group =>   2
---------------------------------
AUXILIARY/J BASIS SET INFORMATION
---------------------------------
There are 2 groups of distinct atoms

 Group   1 Type C   : 12s5p4d2f1g contracted to 6s4p3d1f1g pattern {711111/2111/211/2/1}
 Group   2 Type F   : 12s5p4d2f1g contracted to 6s4p3d1f1g pattern {711111/2111/211/2/1}

Atom   0C    basis set group =>   1
Atom   1F    basis set group =>   2
Atom   2F    basis set group =>   2
Atom   3F    basis set group =>   2


           ************************************************************
           *        Program running with 18 parallel MPI-processes    *
           *              working on a common directory               *
           ************************************************************
------------------------------------------------------------------------------
                           ORCA GTO INTEGRAL CALCULATION
                           -- RI-GTO INTEGRALS CHOSEN --
------------------------------------------------------------------------------
------------------------------------------------------------------------------
                   ___                                                        
                  /   \      - P O W E R E D   B Y -                         
                 /     \                                                     
                 |  |  |   _    _      __       _____    __    __             
                 |  |  |  | |  | |    /  \     |  _  \  |  |  /  |          
                  \  \/   | |  | |   /    \    | | | |  |  | /  /          
                 / \  \   | |__| |  /  /\  \   | |_| |  |  |/  /          
                |  |  |   |  __  | /  /__\  \  |    /   |      \           
                |  |  |   | |  | | |   __   |  |    \   |  |\   \          
                \     /   | |  | | |  |  |  |  | |\  \  |  | \   \       
                 \___/    |_|  |_| |__|  |__|  |_| \__\ |__|  \__/        
                                                                              
                      - O R C A' S   B I G   F R I E N D -                    
                                      &                                       
                       - I N T E G R A L  F E E D E R -                       
                                                                              
 v1 FN, 2020, v2 2021                                                         
------------------------------------------------------------------------------


Reading SHARK input file /beegfs/scratch/ispackman/PFAS_EPR_calcs/benchmark/JChemEd_CF3_radical/CF3_radical_98.0_degrees_IN-PROGRESS/CF3_radical_98.0_degrees.SHARKINP.tmp ... ok
----------------------
SHARK INTEGRAL PACKAGE
----------------------

Number of atoms                             ...      4
Number of basis functions                   ...    157
Number of shells                            ...     55
Maximum angular momentum                    ...      3
Integral batch strategy                     ... SHARK/LIBINT Hybrid
RI-J (if used) integral strategy            ... SPLIT-RIJ (Revised 2003 algorithm where possible)
Printlevel                                  ...      1
Contraction scheme used                     ... SEGMENTED contraction
Coulomb Range Separation                    ... NOT USED
Exchange Range Separation                   ... Long Range
   Mu parameter                             ...  0.250000
   Scaling (regular/separated)              ...  0.195728  0.804272
Finite Nucleus Model                        ... NOT USED
Auxiliary Coulomb fitting basis             ... AVAILABLE
   # of basis functions in Aux-J            ...    196
   # of shells in Aux-J                     ...     60
   Maximum angular momentum in Aux-J        ...      4
Auxiliary J/K fitting basis                 ... NOT available
Auxiliary Correlation fitting basis         ... NOT available
Auxiliary 'external' fitting basis          ... NOT available
Integral threshold                          ...     2.500000e-11
Primitive cut-off                           ...     2.500000e-12
Primitive pair pre-selection threshold      ...     2.500000e-12

Calculating pre-screening integrals         ... done (  0.0 sec) Dimension = 55
Organizing shell pair data                  ... done (  0.0 sec)
Shell pair information
Total number of shell pairs                 ...      1540
Shell pairs after pre-screening             ...      1516
Total number of primitive shell pairs       ...      4274
Primitive shell pairs kept                  ...      3587
          la=0 lb=0:    282 shell pairs
          la=1 lb=0:    360 shell pairs
          la=1 lb=1:    120 shell pairs
          la=2 lb=0:    282 shell pairs
          la=2 lb=1:    180 shell pairs
          la=2 lb=2:     78 shell pairs
          la=3 lb=0:     96 shell pairs
          la=3 lb=1:     60 shell pairs
          la=3 lb=2:     48 shell pairs
          la=3 lb=3:     10 shell pairs

Calculating one electron integrals          ... done (  0.0 sec)
Calculating RI/J V-Matrix + Cholesky decomp.... done (  0.0 sec)
Calculating Nuclear repulsion               ... done (  0.0 sec) ENN=    129.976014425804 Eh

SHARK setup successfully completed in   0.3 seconds

Maximum memory used throughout the entire GTOINT-calculation: 15.2 MB


           ************************************************************
           *        Program running with 18 parallel MPI-processes    *
           *              working on a common directory               *
           ************************************************************
-------------------------------------------------------------------------------
                                 ORCA SCF
-------------------------------------------------------------------------------

------------
SCF SETTINGS
------------
Hamiltonian:
 Density Functional     Method          .... DFT(GTOs)
 Exchange Functional    Exchange        .... WB97X-D3
 Correlation Functional Correlation     .... WB97X-D3
 Gradients option       PostSCFGGA      .... off
 Hybrid DFT is turned on
   Fraction HF Exchange ScalHFX         ....  0.195728
   Scaling of DF-GGA-X  ScalDFX         ....  0.000000
   Scaling of DF-GGA-C  ScalDFC         ....  1.000000
   Scaling of DF-LDA-C  ScalLDAC        ....  1.000000
   Perturbative correction              ....  0.000000
   Density functional embedding theory  .... OFF
 Long-range corrected/Screened/Range-Separated Hybrid DFT is turned on
   Amount of maximum screened exact exchange              ....  0.804272
   Range separation parameter mu (erf(mu*r12)/r12)        ....  0.250000
 RI-approximation to the Coulomb term is turned on
   Number of AuxJ basis functions       .... 196
   RIJ-COSX (HFX calculated with COS-X)).... on


General Settings:
 Integral files         IntName         .... /beegfs/scratch/ispackman/PFAS_EPR_calcs/benchmark/JChemEd_CF3_radical/CF3_radical_98.0_degrees_IN-PROGRESS/CF3_radical_98.0_degrees
 Hartree-Fock type      HFTyp           .... UHF
 Total Charge           Charge          ....    0
 Multiplicity           Mult            ....    2
 Number of Electrons    NEL             ....   33
 Basis Dimension        Dim             ....  157
 Nuclear Repulsion      ENuc            ....    129.9760144258 Eh

Convergence Acceleration:
 DIIS                   CNVDIIS         .... on
   Start iteration      DIISMaxIt       ....    12
   Startup error        DIISStart       ....  0.200000
   # of expansion vecs  DIISMaxEq       ....     5
   Bias factor          DIISBfac        ....   1.050
   Max. coefficient     DIISMaxC        ....  10.000
 Trust-Rad. Augm. Hess. CNVTRAH         .... auto
   Auto Start mean grad. ratio tolernc. ....  1.125000
   Auto Start start iteration           ....    20
   Auto Start num. interpolation iter.  ....    10
   Max. Number of Micro iterations      ....    16
   Max. Number of Macro iterations      .... Maxiter - #DIIS iter
   Number of Davidson start vectors     ....     2
   Converg. threshold I  (grad. norm)   ....   1.000e-05
   Converg. threshold II (energy diff.) ....   1.000e-08
   Grad. Scal. Fac. for Micro threshold ....   0.100
   Minimum threshold for Micro iter.    ....   0.010
   NR start threshold (gradient norm)   ....   0.001
   Initial trust radius                 ....   0.400
   Minimum AH scaling param. (alpha)    ....   1.000
   Maximum AH scaling param. (alpha)    .... 1000.000
   Orbital update algorithm             .... Taylor
   White noise on init. David. guess    .... on
   Maximum white noise                  ....   0.010
   Quad. conv. algorithm                .... NR
 SOSCF                  CNVSOSCF        .... off
 Level Shifting         CNVShift        .... on
   Level shift para.    LevelShift      ....    0.2500
   Turn off err/grad.   ShiftErr        ....    0.0010
 Zerner damping         CNVZerner       .... off
 Static damping         CNVDamp         .... on
   Fraction old density DampFac         ....    0.7000
   Max. Damping (<1)    DampMax         ....    0.9800
   Min. Damping (>=0)   DampMin         ....    0.0000
   Turn off err/grad.   DampErr         ....    0.1000
 Fernandez-Rico         CNVRico         .... off

SCF Procedure:
 Maximum # iterations   MaxIter         ....   125
 SCF integral mode      SCFMode         .... Direct
   Integral package                     .... SHARK and LIBINT hybrid scheme
 Reset frequency        DirectResetFreq ....    20
 Integral Threshold     Thresh          ....  2.500e-11 Eh
 Primitive CutOff       TCut            ....  2.500e-12 Eh

Convergence Tolerance:
 Convergence Check Mode ConvCheckMode   .... Total+1el-Energy
 Convergence forced     ConvForced      .... 0
 Energy Change          TolE            ....  1.000e-08 Eh
 1-El. energy change                    ....  1.000e-05 Eh
 DIIS Error             TolErr          ....  5.000e-07


Diagonalization of the overlap matrix:
Smallest eigenvalue                        ... 3.623e-04
Time for diagonalization                   ...    0.007 sec
Threshold for overlap eigenvalues          ... 1.000e-08
Number of eigenvalues below threshold      ... 0
Time for construction of square roots      ...    0.028 sec
Total time needed                          ...    0.036 sec

Time for model grid setup =    0.056 sec

------------------------------
INITIAL GUESS: MODEL POTENTIAL
------------------------------
Loading Hartree-Fock densities                     ... done
Calculating cut-offs                               ... done
Initializing the effective Hamiltonian             ... done
Setting up the integral package (SHARK)            ... done
Starting the Coulomb interaction                   ... done (   0.1 sec)
Reading the grid                                   ... done
Mapping shells                                     ... done
Starting the XC term evaluation                    ... done (   0.0 sec)
  promolecular density results
     # of electrons  =     33.000209670
     EX              =    -35.106216666
     EC              =     -1.149558846
     EX+EC           =    -36.255775512
Transforming the Hamiltonian                       ... done (   0.0 sec)
Diagonalizing the Hamiltonian                      ... done (   0.0 sec)
Back transforming the eigenvectors                 ... done (   0.0 sec)
Now organizing SCF variables                       ... done
                      ------------------
                      INITIAL GUESS DONE (   0.2 sec)
                      ------------------
-------------------
DFT GRID GENERATION
-------------------

General Integration Accuracy     IntAcc      ... 4.388
Radial Grid Type                 RadialGrid  ... OptM3 with GC (2021)
Angular Grid (max. ang.)         AngularGrid ... 4 (Lebedev-302)
Angular grid pruning method      GridPruning ... 4 (adaptive)
Weight generation scheme         WeightScheme... Becke
Basis function cutoff            BFCut       ... 1.0000e-11
Integration weight cutoff        WCut        ... 1.0000e-14
Angular grids for H and He will be reduced by one unit
Partially contracted basis set               ... off
Rotationally invariant grid construction     ... off

Total number of grid points                  ...    25776
Total number of batches                      ...      404
Average number of points per batch           ...       63
Average number of grid points per atom       ...     6444
Time for grid setup =    0.150 sec

--------------------
COSX GRID GENERATION
--------------------

GRIDX 1
-------
General Integration Accuracy     IntAcc      ... 3.816
Radial Grid Type                 RadialGrid  ... OptM3 with GC (2021)
Angular Grid (max. ang.)         AngularGrid ... 1 (Lebedev-50)
Angular grid pruning method      GridPruning ... 4 (adaptive)
Weight generation scheme         WeightScheme... Becke
Basis function cutoff            BFCut       ... 1.0000e-11
Integration weight cutoff        WCut        ... 1.0000e-14
Angular grids for H and He will be reduced by one unit
Partially contracted basis set               ... on
Rotationally invariant grid construction     ... off

Total number of grid points                  ...     3272
Total number of batches                      ...       53
Average number of points per batch           ...       61
Average number of grid points per atom       ...      818
UseSFitting                                  ... on

GRIDX 2
-------
General Integration Accuracy     IntAcc      ... 4.020
Radial Grid Type                 RadialGrid  ... OptM3 with GC (2021)
Angular Grid (max. ang.)         AngularGrid ... 2 (Lebedev-110)
Angular grid pruning method      GridPruning ... 4 (adaptive)
Weight generation scheme         WeightScheme... Becke
Basis function cutoff            BFCut       ... 1.0000e-11
Integration weight cutoff        WCut        ... 1.0000e-14
Angular grids for H and He will be reduced by one unit
Partially contracted basis set               ... on
Rotationally invariant grid construction     ... off

Total number of grid points                  ...     9127
Total number of batches                      ...      145
Average number of points per batch           ...       62
Average number of grid points per atom       ...     2282
UseSFitting                                  ... on

GRIDX 3
-------
General Integration Accuracy     IntAcc      ... 4.338
Radial Grid Type                 RadialGrid  ... OptM3 with GC (2021)
Angular Grid (max. ang.)         AngularGrid ... 3 (Lebedev-194)
Angular grid pruning method      GridPruning ... 4 (adaptive)
Weight generation scheme         WeightScheme... Becke
Basis function cutoff            BFCut       ... 1.0000e-11
Integration weight cutoff        WCut        ... 1.0000e-14
Angular grids for H and He will be reduced by one unit
Partially contracted basis set               ... on
Rotationally invariant grid construction     ... off

Total number of grid points                  ...    19687
Total number of batches                      ...      310
Average number of points per batch           ...       63
Average number of grid points per atom       ...     4922
UseSFitting                                  ... on

Time for X-Grid setup             =    0.314 sec

--------------
SCF ITERATIONS
--------------
ITER       Energy         Delta-E        Max-DP      RMS-DP      [F,P]     Damp
               ***  Starting incremental Fock matrix formation  ***
  0   -337.5140731156   0.000000000000 0.01904605  0.00042061  0.0709575 0.7000
  1   -337.5444372260  -0.030364110413 0.01100844  0.00027810  0.0332977 0.7000
                               ***Turning on DIIS***
  2   -337.5569408470  -0.012503620980 0.02648987  0.00052237  0.0169618 0.0000
  3   -337.5790105342  -0.022069687239 0.00674863  0.00015591  0.0151111 0.0000
  4   -337.5826090017  -0.003598467453 0.00495192  0.00007933  0.0034724 0.0000
  5   -337.5828210497  -0.000212047990 0.00289216  0.00004663  0.0019836 0.0000
  6   -337.5828847277  -0.000063678045 0.00233505  0.00004192  0.0008552 0.0000
               *** Restarting incremental Fock matrix formation ***
                                   *** Resetting DIIS ***
  7   -337.5829110186  -0.000026290916 0.00047348  0.00000739  0.0001916 0.0000
  8   -337.5829118978  -0.000000879151 0.00007968  0.00000213  0.0001030 0.0000
  9   -337.5829121117  -0.000000213928 0.00006507  0.00000164  0.0000990 0.0000
 10   -337.5829122271  -0.000000115411 0.00004853  0.00000059  0.0000122 0.0000
 11   -337.5829122299  -0.000000002740 0.00001168  0.00000014  0.0000020 0.0000
                            ***DIIS convergence achieved***

               *****************************************************
               *                     SUCCESS                       *
               *           SCF CONVERGED AFTER  12 CYCLES          *
               *****************************************************

Old exchange energy                            =    -10.544210265 Eh
New exchange energy                            =    -10.544200951 Eh
Exchange energy change after final integration =      0.000009315 Eh
Total energy after final integration           =   -337.582902916 Eh
Final COS-X integration done in                =     0.392 sec

----------------
TOTAL SCF ENERGY
----------------

Total Energy       :         -337.58290292 Eh           -9186.09780 eV

Components:
Nuclear Repulsion  :          129.97601443 Eh            3536.82716 eV
Electronic Energy  :         -467.55891734 Eh          -12722.92496 eV
One Electron Energy:         -726.93078019 Eh          -19780.79217 eV
Two Electron Energy:          259.37186285 Eh            7057.86720 eV
Max COSX asymmetry :            0.00000041 Eh               0.00001 eV

Virial components:
Potential Energy   :         -674.46722528 Eh          -18353.18626 eV
Kinetic Energy     :          336.88432236 Eh            9167.08846 eV
Virial Ratio       :            2.00207365


DFT components:
N(Alpha)           :       16.999881855606 electrons
N(Beta)            :       15.999889465862 electrons
N(Total)           :       32.999771321467 electrons
E(XC)              :      -26.223672209751 Eh       
DFET-embed. en.    :        0.000000000000 Eh       

---------------
SCF CONVERGENCE
---------------

  Last Energy change         ...   -7.7654e-10  Tolerance :   1.0000e-08
  Last MAX-Density change    ...    0.0000e+00  Tolerance :   1.0000e-07
  Last RMS-Density change    ...    0.0000e+00  Tolerance :   5.0000e-09
  Last DIIS Error            ...    7.9345e-07  Tolerance :   5.0000e-07

             **** THE GBW FILE WAS UPDATED (/beegfs/scratch/ispackman/PFAS_EPR_calcs/benchmark/JChemEd_CF3_radical/CF3_radical_98.0_degrees_IN-PROGRESS/CF3_radical_98.0_degrees.gbw) ****
             **** DENSITY /beegfs/scratch/ispackman/PFAS_EPR_calcs/benchmark/JChemEd_CF3_radical/CF3_radical_98.0_degrees_IN-PROGRESS/CF3_radical_98.0_degrees.scfp WAS UPDATED ****
             **** ENERGY FILE WAS UPDATED (/beegfs/scratch/ispackman/PFAS_EPR_calcs/benchmark/JChemEd_CF3_radical/CF3_radical_98.0_degrees_IN-PROGRESS/CF3_radical_98.0_degrees.en.tmp) ****
----------------------
UHF SPIN CONTAMINATION
----------------------

Warning: in a DFT calculation there is little theoretical justification to 
         calculate <S**2> as in Hartree-Fock theory. We will do it anyways
         but you should keep in mind that the values have only limited relevance

Expectation value of <S**2>     :     0.752223
Ideal value S*(S+1) for S=0.5   :     0.750000
Deviation                       :     0.002223

             **** THE GBW FILE WAS UPDATED (/beegfs/scratch/ispackman/PFAS_EPR_calcs/benchmark/JChemEd_CF3_radical/CF3_radical_98.0_degrees_IN-PROGRESS/CF3_radical_98.0_degrees.gbw) ****
             **** DENSITY /beegfs/scratch/ispackman/PFAS_EPR_calcs/benchmark/JChemEd_CF3_radical/CF3_radical_98.0_degrees_IN-PROGRESS/CF3_radical_98.0_degrees.scfp WAS UPDATED ****
----------------
ORBITAL ENERGIES
----------------
                 SPIN UP ORBITALS
  NO   OCC          E(Eh)            E(eV) 
   0   1.0000     -24.834663      -675.7855 
   1   1.0000     -24.834660      -675.7854 
   2   1.0000     -24.834656      -675.7853 
   3   1.0000     -10.553274      -287.1692 
   4   1.0000      -1.489661       -40.5357 
   5   1.0000      -1.361275       -37.0422 
   6   1.0000      -1.361274       -37.0422 
   7   1.0000      -0.838181       -22.8081 
   8   1.0000      -0.721880       -19.6434 
   9   1.0000      -0.721873       -19.6432 
  10   1.0000      -0.709872       -19.3166 
  11   1.0000      -0.605494       -16.4763 
  12   1.0000      -0.605486       -16.4761 
  13   1.0000      -0.536395       -14.5961 
  14   1.0000      -0.536394       -14.5960 
  15   1.0000      -0.517800       -14.0900 
  16   1.0000      -0.445190       -12.1142 
  17   0.0000       0.072516         1.9733 
  18   0.0000       0.105002         2.8573 
  19   0.0000       0.105003         2.8573 
  20   0.0000       0.111598         3.0367 
  21   0.0000       0.158517         4.3135 
  22   0.0000       0.158518         4.3135 
  23   0.0000       0.172902         4.7049 
  24   0.0000       0.172903         4.7049 
  25   0.0000       0.192400         5.2355 
  26   0.0000       0.207522         5.6470 
  27   0.0000       0.207528         5.6471 
  28   0.0000       0.241380         6.5683 
  29   0.0000       0.285888         7.7794 
  30   0.0000       0.346363         9.4250 
  31   0.0000       0.346368         9.4252 
  32   0.0000       0.354548         9.6477 
  33   0.0000       0.381487        10.3808 
  34   0.0000       0.381488        10.3808 
  35   0.0000       0.402419        10.9504 
  36   0.0000       0.402421        10.9504 
  37   0.0000       0.404793        11.0150 
  38   0.0000       0.434118        11.8129 
  39   0.0000       0.485914        13.2224 
  40   0.0000       0.485921        13.2226 
  41   0.0000       0.534288        14.5387 
  42   0.0000       0.571671        15.5560 
  43   0.0000       0.625139        17.0109 
  44   0.0000       0.625142        17.0110 
  45   0.0000       0.701931        19.1005 
  46   0.0000       0.701937        19.1007 
  47   0.0000       0.708293        19.2736 
  48   0.0000       0.727299        19.7908 
  49   0.0000       0.740802        20.1582 
  50   0.0000       0.740809        20.1584 
  51   0.0000       0.771553        20.9950 
  52   0.0000       0.794306        21.6142 
  53   0.0000       0.794306        21.6142 
  54   0.0000       0.868371        23.6296 
  55   0.0000       0.903603        24.5883 
  56   0.0000       0.903606        24.5884 
  57   0.0000       0.929801        25.3012 
  58   0.0000       0.974426        26.5155 
  59   0.0000       0.974434        26.5157 
  60   0.0000       1.080009        29.3885 
  61   0.0000       1.080012        29.3886 
  62   0.0000       1.116165        30.3724 
  63   0.0000       1.160098        31.5679 
  64   0.0000       1.160112        31.5683 
  65   0.0000       1.170303        31.8456 
  66   0.0000       1.248236        33.9662 
  67   0.0000       1.251920        34.0665 
  68   0.0000       1.251921        34.0665 
  69   0.0000       1.302101        35.4320 
  70   0.0000       1.302102        35.4320 
  71   0.0000       1.350167        36.7399 
  72   0.0000       1.464923        39.8626 
  73   0.0000       1.464947        39.8632 
  74   0.0000       1.650303        44.9070 
  75   0.0000       2.123110        57.7728 
  76   0.0000       2.166539        58.9545 
  77   0.0000       2.166561        58.9551 
  78   0.0000       2.200643        59.8825 
  79   0.0000       2.212353        60.2012 
  80   0.0000       2.215274        60.2807 
  81   0.0000       2.215299        60.2814 
  82   0.0000       2.331928        63.4550 
  83   0.0000       2.331957        63.4558 
  84   0.0000       2.449216        66.6466 
  85   0.0000       2.465229        67.0823 
  86   0.0000       2.465235        67.0825 
  87   0.0000       2.596416        70.6521 
  88   0.0000       2.596419        70.6522 
  89   0.0000       2.880119        78.3720 
  90   0.0000       2.928163        79.6794 
  91   0.0000       2.928196        79.6803 
  92   0.0000       2.963862        80.6508 
  93   0.0000       3.041804        82.7717 
  94   0.0000       3.177509        86.4644 
  95   0.0000       3.177580        86.4663 
  96   0.0000       3.189229        86.7833 
  97   0.0000       3.291799        89.5744 
  98   0.0000       3.291873        89.5764 
  99   0.0000       3.402769        92.5941 
 100   0.0000       3.402783        92.5944 
 101   0.0000       3.441681        93.6529 
 102   0.0000       3.640309        99.0579 
 103   0.0000       3.640324        99.0582 
 104   0.0000       3.677376       100.0665 
 105   0.0000       3.814317       103.7929 
 106   0.0000       3.948106       107.4334 
 107   0.0000       3.948160       107.4349 
 108   0.0000       3.948387       107.4411 
 109   0.0000       4.108944       111.8101 
 110   0.0000       4.108960       111.8105 
 111   0.0000       4.216959       114.7493 
 112   0.0000       4.316333       117.4534 
 113   0.0000       4.316373       117.4545 
 114   0.0000       5.398567       146.9025 
 115   0.0000       5.398586       146.9030 
 116   0.0000       5.526861       150.3935 
 117   0.0000       6.913127       188.1158 
 118   0.0000       6.913150       188.1164 
 119   0.0000       6.918243       188.2550 
 120   0.0000       6.929970       188.5741 
 121   0.0000       6.929989       188.5746 
 122   0.0000       6.933574       188.6721 
 123   0.0000       6.938973       188.8190 
 124   0.0000       6.939012       188.8201 
 125   0.0000       6.960420       189.4026 
 126   0.0000       7.060999       192.1395 
 127   0.0000       7.061076       192.1416 
 128   0.0000       7.171395       195.1436 
 129   0.0000       7.248614       197.2448 
 130   0.0000       7.248620       197.2450 
 131   0.0000       7.267774       197.7662 
 132   0.0000       7.465269       203.1403 
 133   0.0000       7.497202       204.0092 
 134   0.0000       7.614744       207.2077 
 135   0.0000       7.614763       207.2082 
 136   0.0000       7.784615       211.8302 
 137   0.0000       7.784686       211.8321 
 138   0.0000       8.525694       231.9959 
 139   0.0000       8.525710       231.9964 
 140   0.0000       8.581094       233.5034 
 141   0.0000       8.590296       233.7538 
 142   0.0000       8.619144       234.5388 
 143   0.0000       8.619204       234.5405 
 144   0.0000       8.842814       240.6252 
 145   0.0000       8.847679       240.7576 
 146   0.0000       8.847697       240.7581 
 147   0.0000       9.053959       246.3707 
 148   0.0000       9.116159       248.0633 
 149   0.0000       9.116215       248.0648 
 150   0.0000       9.268838       252.2179 
 151   0.0000       9.397407       255.7164 
 152   0.0000       9.397443       255.7174 
 153   0.0000      22.658609       616.5721 
 154   0.0000      57.382993      1561.4706 
 155   0.0000      57.383018      1561.4713 
 156   0.0000      57.480986      1564.1372 

                 SPIN DOWN ORBITALS
  NO   OCC          E(Eh)            E(eV) 
   0   1.0000     -24.831856      -675.7092 
   1   1.0000     -24.831854      -675.7091 
   2   1.0000     -24.831842      -675.7088 
   3   1.0000     -10.540352      -286.8176 
   4   1.0000      -1.481014       -40.3004 
   5   1.0000      -1.352663       -36.8078 
   6   1.0000      -1.352663       -36.8078 
   7   1.0000      -0.819955       -22.3121 
   8   1.0000      -0.711443       -19.3593 
   9   1.0000      -0.711439       -19.3592 
  10   1.0000      -0.668450       -18.1894 
  11   1.0000      -0.593733       -16.1563 
  12   1.0000      -0.593725       -16.1561 
  13   1.0000      -0.528967       -14.3939 
  14   1.0000      -0.528966       -14.3939 
  15   1.0000      -0.514510       -14.0005 
  16   0.0000      -0.093915        -2.5556 
  17   0.0000       0.082844         2.2543 
  18   0.0000       0.108435         2.9507 
  19   0.0000       0.108436         2.9507 
  20   0.0000       0.125826         3.4239 
  21   0.0000       0.164430         4.4744 
  22   0.0000       0.164431         4.4744 
  23   0.0000       0.178023         4.8443 
  24   0.0000       0.178024         4.8443 
  25   0.0000       0.202880         5.5206 
  26   0.0000       0.230376         6.2688 
  27   0.0000       0.230377         6.2689 
  28   0.0000       0.241994         6.5850 
  29   0.0000       0.291642         7.9360 
  30   0.0000       0.365947         9.9579 
  31   0.0000       0.365950         9.9580 
  32   0.0000       0.367184         9.9916 
  33   0.0000       0.382763        10.4155 
  34   0.0000       0.382764        10.4155 
  35   0.0000       0.405049        11.0219 
  36   0.0000       0.405050        11.0220 
  37   0.0000       0.411943        11.2095 
  38   0.0000       0.444047        12.0831 
  39   0.0000       0.487621        13.2688 
  40   0.0000       0.487626        13.2690 
  41   0.0000       0.537141        14.6163 
  42   0.0000       0.579184        15.7604 
  43   0.0000       0.626938        17.0598 
  44   0.0000       0.626944        17.0600 
  45   0.0000       0.703192        19.1348 
  46   0.0000       0.703196        19.1349 
  47   0.0000       0.708524        19.2799 
  48   0.0000       0.737361        20.0646 
  49   0.0000       0.743307        20.2264 
  50   0.0000       0.743318        20.2267 
  51   0.0000       0.770755        20.9733 
  52   0.0000       0.796341        21.6696 
  53   0.0000       0.796343        21.6696 
  54   0.0000       0.869341        23.6560 
  55   0.0000       0.905920        24.6513 
  56   0.0000       0.905922        24.6514 
  57   0.0000       0.944752        25.7080 
  58   0.0000       0.981834        26.7171 
  59   0.0000       0.981845        26.7174 
  60   0.0000       1.083143        29.4738 
  61   0.0000       1.083145        29.4739 
  62   0.0000       1.121206        30.5096 
  63   0.0000       1.162354        31.6293 
  64   0.0000       1.162372        31.6297 
  65   0.0000       1.183407        32.2021 
  66   0.0000       1.249692        34.0059 
  67   0.0000       1.262860        34.3642 
  68   0.0000       1.262861        34.3642 
  69   0.0000       1.309085        35.6220 
  70   0.0000       1.309107        35.6226 
  71   0.0000       1.350557        36.7505 
  72   0.0000       1.466624        39.9089 
  73   0.0000       1.466650        39.9096 
  74   0.0000       1.705339        46.4046 
  75   0.0000       2.132508        58.0285 
  76   0.0000       2.176103        59.2148 
  77   0.0000       2.176138        59.2157 
  78   0.0000       2.204157        59.9782 
  79   0.0000       2.222153        60.4678 
  80   0.0000       2.223967        60.5172 
  81   0.0000       2.223994        60.5180 
  82   0.0000       2.336416        63.5771 
  83   0.0000       2.336445        63.5779 
  84   0.0000       2.450610        66.6845 
  85   0.0000       2.470970        67.2385 
  86   0.0000       2.470972        67.2386 
  87   0.0000       2.622391        71.3589 
  88   0.0000       2.622403        71.3592 
  89   0.0000       2.887760        78.5799 
  90   0.0000       2.933029        79.8118 
  91   0.0000       2.933063        79.8127 
  92   0.0000       2.968148        80.7674 
  93   0.0000       3.059573        83.2552 
  94   0.0000       3.191726        86.8513 
  95   0.0000       3.191766        86.8524 
  96   0.0000       3.242524        88.2336 
  97   0.0000       3.319399        90.3254 
  98   0.0000       3.319452        90.3269 
  99   0.0000       3.448142        93.8287 
 100   0.0000       3.448144        93.8288 
 101   0.0000       3.451490        93.9198 
 102   0.0000       3.656768        99.5057 
 103   0.0000       3.656797        99.5065 
 104   0.0000       3.713739       101.0560 
 105   0.0000       3.822683       104.0205 
 106   0.0000       3.954934       107.6192 
 107   0.0000       3.977684       108.2383 
 108   0.0000       3.977728       108.2395 
 109   0.0000       4.117649       112.0469 
 110   0.0000       4.117654       112.0471 
 111   0.0000       4.230062       115.1058 
 112   0.0000       4.327497       117.7572 
 113   0.0000       4.327550       117.7586 
 114   0.0000       5.407669       147.1502 
 115   0.0000       5.407701       147.1510 
 116   0.0000       5.539341       150.7331 
 117   0.0000       6.918870       188.2720 
 118   0.0000       6.918890       188.2726 
 119   0.0000       6.923765       188.4052 
 120   0.0000       6.932848       188.6524 
 121   0.0000       6.932864       188.6528 
 122   0.0000       6.938967       188.8189 
 123   0.0000       6.944572       188.9714 
 124   0.0000       6.944604       188.9723 
 125   0.0000       6.962448       189.4578 
 126   0.0000       7.066201       192.2811 
 127   0.0000       7.066276       192.2831 
 128   0.0000       7.176043       195.2701 
 129   0.0000       7.256691       197.4646 
 130   0.0000       7.256696       197.4647 
 131   0.0000       7.274117       197.9388 
 132   0.0000       7.473203       203.3562 
 133   0.0000       7.506417       204.2600 
 134   0.0000       7.621266       207.3852 
 135   0.0000       7.621290       207.3858 
 136   0.0000       7.792722       212.0507 
 137   0.0000       7.792792       212.0527 
 138   0.0000       8.533234       232.2011 
 139   0.0000       8.533250       232.2015 
 140   0.0000       8.591366       233.7830 
 141   0.0000       8.598735       233.9835 
 142   0.0000       8.628591       234.7959 
 143   0.0000       8.628650       234.7975 
 144   0.0000       8.847107       240.7420 
 145   0.0000       8.857410       241.0224 
 146   0.0000       8.857431       241.0230 
 147   0.0000       9.062715       246.6090 
 148   0.0000       9.120680       248.1863 
 149   0.0000       9.120728       248.1876 
 150   0.0000       9.274241       252.3649 
 151   0.0000       9.404264       255.9030 
 152   0.0000       9.404299       255.9040 
 153   0.0000      22.681862       617.2048 
 154   0.0000      57.385770      1561.5462 
 155   0.0000      57.385797      1561.5469 
 156   0.0000      57.483793      1564.2135 

                    ********************************
                    * MULLIKEN POPULATION ANALYSIS *
                    ********************************

--------------------------------------------
MULLIKEN ATOMIC CHARGES AND SPIN POPULATIONS
--------------------------------------------
   0 C :    0.572205    0.777886
   1 F :   -0.190653    0.074082
   2 F :   -0.190776    0.074015
   3 F :   -0.190776    0.074017
Sum of atomic charges         :   -0.0000000
Sum of atomic spin populations:    1.0000000

-----------------------------------------------------
MULLIKEN REDUCED ORBITAL CHARGES AND SPIN POPULATIONS
-----------------------------------------------------
CHARGE
  0 C s       :     3.183055  s :     3.183055
      pz      :     0.819879  p :     1.913070
      px      :     0.546596
      py      :     0.546594
      dz2     :     0.062582  d :     0.287626
      dxz     :     0.045988
      dyz     :     0.045992
      dx2y2   :     0.066529
      dxy     :     0.066535
      f0      :     0.001566  f :     0.044044
      f+1     :     0.007072
      f-1     :     0.007072
      f+2     :     0.007744
      f-2     :     0.007750
      f+3     :     0.003749
      f-3     :     0.009091
  1 F s       :     3.953446  s :     3.953446
      pz      :     1.710219  p :     5.228057
      px      :     1.588396
      py      :     1.929441
      dz2     :     0.000695  d :     0.008288
      dxz     :     0.005230
      dyz     :     0.001884
      dx2y2   :     0.004048
      dxy     :    -0.003570
      f0      :     0.000085  f :     0.000862
      f+1     :     0.000186
      f-1     :     0.000007
      f+2     :     0.000228
      f-2     :     0.000082
      f+3     :     0.000143
      f-3     :     0.000131
  2 F s       :     3.953512  s :     3.953512
      pz      :     1.710198  p :     5.228131
      px      :     1.844212
      py      :     1.673721
      dz2     :     0.000692  d :     0.008270
      dxz     :     0.002719
      dyz     :     0.004390
      dx2y2   :    -0.001666
      dxy     :     0.002135
      f0      :     0.000085  f :     0.000862
      f+1     :     0.000052
      f-1     :     0.000141
      f+2     :     0.000118
      f-2     :     0.000191
      f+3     :     0.000144
      f-3     :     0.000131
  3 F s       :     3.953512  s :     3.953512
      pz      :     1.710198  p :     5.228132
      px      :     1.844213
      py      :     1.673721
      dz2     :     0.000692  d :     0.008270
      dxz     :     0.002719
      dyz     :     0.004390
      dx2y2   :    -0.001666
      dxy     :     0.002135
      f0      :     0.000085  f :     0.000862
      f+1     :     0.000052
      f-1     :     0.000141
      f+2     :     0.000118
      f-2     :     0.000191
      f+3     :     0.000144
      f-3     :     0.000131

SPIN
  0 C s       :     0.279121  s :     0.279121
      pz      :     0.463595  p :     0.490142
      px      :     0.013259
      py      :     0.013288
      dz2     :     0.014001  d :     0.009342
      dxz     :    -0.001418
      dyz     :    -0.001418
      dx2y2   :    -0.000913
      dxy     :    -0.000910
      f0      :    -0.000001  f :    -0.000718
      f+1     :    -0.000301
      f-1     :    -0.000300
      f+2     :    -0.000215
      f-2     :    -0.000216
      f+3     :     0.000276
      f-3     :     0.000039
  1 F s       :     0.003104  s :     0.003104
      pz      :     0.073729  p :     0.069444
      px      :    -0.003045
      py      :    -0.001240
      dz2     :    -0.000186  d :     0.001505
      dxz     :     0.001023
      dyz     :    -0.000019
      dx2y2   :     0.000797
      dxy     :    -0.000109
      f0      :     0.000004  f :     0.000029
      f+1     :     0.000013
      f-1     :     0.000001
      f+2     :     0.000003
      f-2     :     0.000001
      f+3     :     0.000008
      f-3     :    -0.000001
  2 F s       :     0.003090  s :     0.003090
      pz      :     0.073679  p :     0.069389
      px      :    -0.001690
      py      :    -0.002601
      dz2     :    -0.000187  d :     0.001508
      dxz     :     0.000242
      dyz     :     0.000762
      dx2y2   :     0.000117
      dxy     :     0.000573
      f0      :     0.000004  f :     0.000029
      f+1     :     0.000004
      f-1     :     0.000010
      f+2     :     0.000002
      f-2     :     0.000002
      f+3     :     0.000007
      f-3     :    -0.000001
  3 F s       :     0.003091  s :     0.003091
      pz      :     0.073679  p :     0.069389
      px      :    -0.001690
      py      :    -0.002600
      dz2     :    -0.000187  d :     0.001508
      dxz     :     0.000243
      dyz     :     0.000762
      dx2y2   :     0.000117
      dxy     :     0.000573
      f0      :     0.000004  f :     0.000029
      f+1     :     0.000004
      f-1     :     0.000010
      f+2     :     0.000002
      f-2     :     0.000002
      f+3     :     0.000007
      f-3     :    -0.000001


                     *******************************
                     * LOEWDIN POPULATION ANALYSIS *
                     *******************************

-------------------------------------------
LOEWDIN ATOMIC CHARGES AND SPIN POPULATIONS
-------------------------------------------
   0 C :   -0.327211    0.626861
   1 F :    0.109072    0.124396
   2 F :    0.109069    0.124372
   3 F :    0.109069    0.124372

----------------------------------------------------
LOEWDIN REDUCED ORBITAL CHARGES AND SPIN POPULATIONS
----------------------------------------------------
CHARGE
  0 C s       :     2.713220  s :     2.713220
      pz      :     0.803607  p :     2.156973
      px      :     0.676673
      py      :     0.676694
      dz2     :     0.171825  d :     1.173305
      dxz     :     0.216665
      dyz     :     0.216671
      dx2y2   :     0.284072
      dxy     :     0.284073
      f0      :     0.016695  f :     0.283712
      f+1     :     0.035151
      f-1     :     0.035150
      f+2     :     0.057170
      f-2     :     0.057174
      f+3     :     0.033243
      f-3     :     0.049129
  1 F s       :     3.549198  s :     3.549198
      pz      :     1.660001  p :     5.094914
      px      :     1.645804
      py      :     1.789109
      dz2     :     0.042845  d :     0.244762
      dxz     :     0.067613
      dyz     :     0.012950
      dx2y2   :     0.043746
      dxy     :     0.077609
      f0      :     0.000174  f :     0.002054
      f+1     :     0.000537
      f-1     :     0.000004
      f+2     :     0.000491
      f-2     :     0.000191
      f+3     :     0.000298
      f-3     :     0.000359
  2 F s       :     3.549199  s :     3.549199
      pz      :     1.660012  p :     5.094921
      px      :     1.753282
      py      :     1.681628
      dz2     :     0.042844  d :     0.244756
      dxz     :     0.026615
      dyz     :     0.053946
      dx2y2   :     0.069141
      dxy     :     0.052210
      f0      :     0.000174  f :     0.002054
      f+1     :     0.000137
      f-1     :     0.000404
      f+2     :     0.000266
      f-2     :     0.000416
      f+3     :     0.000298
      f-3     :     0.000359
  3 F s       :     3.549199  s :     3.549199
      pz      :     1.660012  p :     5.094921
      px      :     1.753282
      py      :     1.681627
      dz2     :     0.042844  d :     0.244756
      dxz     :     0.026615
      dyz     :     0.053946
      dx2y2   :     0.069141
      dxy     :     0.052210
      f0      :     0.000174  f :     0.002054
      f+1     :     0.000137
      f-1     :     0.000404
      f+2     :     0.000266
      f-2     :     0.000416
      f+3     :     0.000298
      f-3     :     0.000359

SPIN
  0 C s       :     0.162279  s :     0.162279
      pz      :     0.396740  p :     0.408644
      px      :     0.005946
      py      :     0.005958
      dz2     :     0.056223  d :     0.047697
      dxz     :    -0.003611
      dyz     :    -0.003611
      dx2y2   :    -0.000653
      dxy     :    -0.000651
      f0      :     0.002062  f :     0.008241
      f+1     :    -0.000226
      f-1     :    -0.000225
      f+2     :    -0.000175
      f-2     :    -0.000177
      f+3     :     0.006980
      f-3     :     0.000003
  1 F s       :     0.014687  s :     0.014687
      pz      :     0.076742  p :     0.081830
      px      :     0.005713
      py      :    -0.000625
      dz2     :     0.011358  d :     0.027572
      dxz     :     0.015416
      dyz     :    -0.000216
      dx2y2   :     0.001024
      dxy     :    -0.000009
      f0      :     0.000005  f :     0.000307
      f+1     :     0.000244
      f-1     :     0.000001
      f+2     :     0.000023
      f-2     :     0.000001
      f+3     :     0.000030
      f-3     :     0.000002
  2 F s       :     0.014687  s :     0.014687
      pz      :     0.076710  p :     0.081805
      px      :     0.000961
      py      :     0.004134
      dz2     :     0.011358  d :     0.027573
      dxz     :     0.003692
      dyz     :     0.011509
      dx2y2   :     0.000249
      dxy     :     0.000765
      f0      :     0.000005  f :     0.000307
      f+1     :     0.000062
      f-1     :     0.000184
      f+2     :     0.000007
      f-2     :     0.000017
      f+3     :     0.000030
      f-3     :     0.000002
  3 F s       :     0.014687  s :     0.014687
      pz      :     0.076710  p :     0.081805
      px      :     0.000961
      py      :     0.004134
      dz2     :     0.011358  d :     0.027573
      dxz     :     0.003692
      dyz     :     0.011509
      dx2y2   :     0.000249
      dxy     :     0.000765
      f0      :     0.000005  f :     0.000307
      f+1     :     0.000062
      f-1     :     0.000184
      f+2     :     0.000007
      f-2     :     0.000017
      f+3     :     0.000030
      f-3     :     0.000002


                      *****************************
                      * MAYER POPULATION ANALYSIS *
                      *****************************

  NA   - Mulliken gross atomic population
  ZA   - Total nuclear charge
  QA   - Mulliken gross atomic charge
  VA   - Mayer's total valence
  BVA  - Mayer's bonded valence
  FA   - Mayer's free valence

  ATOM       NA         ZA         QA         VA         BVA        FA
  0 C      5.4278     6.0000     0.5722     3.7951     3.1822     0.6130
  1 F      9.1907     9.0000    -0.1907     1.0162     1.0118     0.0044
  2 F      9.1908     9.0000    -0.1908     1.0159     1.0115     0.0044
  3 F      9.1908     9.0000    -0.1908     1.0159     1.0115     0.0044

  Mayer bond orders larger than 0.100000
B(  0-C ,  1-F ) :   1.0609 B(  0-C ,  2-F ) :   1.0606 B(  0-C ,  3-F ) :   1.0606 


-------
TIMINGS
-------

Total SCF time: 0 days 0 hours 0 min 11 sec 

Total time                  ....      11.417 sec
Sum of individual times     ....      10.601 sec  ( 92.8%)

Fock matrix formation       ....       8.918 sec  ( 78.1%)
  Split-RI-J                ....       1.135 sec  ( 12.7% of F)
  Chain of spheres X        ....       2.992 sec  ( 33.6% of F)
  XC integration            ....       1.979 sec  ( 22.2% of F)
    Basis function eval.    ....       0.115 sec  (  5.8% of XC)
    Density eval.           ....       0.152 sec  (  7.7% of XC)
    XC-Functional eval.     ....       0.067 sec  (  3.4% of XC)
    XC-Potential eval.      ....       0.318 sec  ( 16.1% of XC)
Diagonalization             ....       0.373 sec  (  3.3%)
Density matrix formation    ....       0.023 sec  (  0.2%)
Population analysis         ....       0.161 sec  (  1.4%)
Initial guess               ....       0.135 sec  (  1.2%)
Orbital Transformation      ....       0.000 sec  (  0.0%)
Orbital Orthonormalization  ....       0.000 sec  (  0.0%)
DIIS solution               ....       0.470 sec  (  4.1%)
Grid generation             ....       0.521 sec  (  4.6%)

Maximum memory used throughout the entire SCF-calculation: 63.2 MB


-------------------------------------------------------------------------------
                          DFT DISPERSION CORRECTION                            
                                                                               
                              DFTD3 V3.1  Rev 1                                
                              USING zero damping                               
-------------------------------------------------------------------------------
The omegaB97X-D3 functional is recognized. Fit by Chai et al.
Active option DFTDOPT                   ...         3   

molecular C6(AA) [au] = 165.501876 


            DFT-D V3
 parameters
 s6 scaling factor         :     1.0000 
 rs6 scaling factor        :     1.2810 
 s8 scaling factor         :     1.0000 
 rs8 scaling factor        :     1.0940 
 Damping factor alpha6     :    14.0000 
 Damping factor alpha8     :    16.0000 
 ad hoc parameters k1-k3   :    16.0000     1.3333    -4.0000 

 Edisp/kcal,au: -0.025827747199  -0.000041159131 
 E6   /kcal   :  -0.003271865 
 E8   /kcal   :  -0.022555882 
 % E8         :  87.331977434 

-------------------------   ----------------
Dispersion correction           -0.000041159
-------------------------   ----------------


-------------------------   --------------------
FINAL SINGLE POINT ENERGY      -337.582944075260
-------------------------   --------------------



           ************************************************************
           *        Program running with 18 parallel MPI-processes    *
           *              working on a common directory               *
           ************************************************************
------------------------------------------------------------------------------
                         ORCA SCF GRADIENT CALCULATION
------------------------------------------------------------------------------

 ... reading COSX grid (gridx3)
Gradient of the Kohn-Sham DFT energy:
Kohn-Sham wavefunction type      ... UKS
Hartree-Fock exchange scaling    ...    0.196
Number of operators              ...    2
Number of atoms                  ...    4
Basis set dimensions             ...  157
Integral neglect threshold       ... 2.5e-11
Integral primitive cutoff        ... 2.5e-12
SHARK Integral package           ... ON

Nuc. rep. gradient       (SHARK) ... done (  0.0 sec)
HCore & Overlap gradient (SHARK) ... done (  0.0 sec)
RI-J gradient            (SHARK) ... done (  0.2 sec)
COSX-gradient                    ... done (  0.5 sec)
Exchange-correlation gradient    ... done
Dispersion correction            ... done

------------------
CARTESIAN GRADIENT
------------------

WARNING: THERE ARE 3 CONSTRAINED CARTESIAN COORDINATES
   1   C   :   -0.000251632   -0.000000036    0.125626830
   2   F   :   -0.075024474   -0.000000006   -0.042040892
   3   F   :    0.037745563   -0.064925144   -0.041797419
   4   F   :    0.037745522    0.064925078   -0.041797254

Difference to translation invariance:
           :    0.0002149793   -0.0000001087   -0.0000087352

Difference to rotation invariance:
           :   -0.0000003977   -0.0000412616   -0.0000000172

Norm of the cartesian gradient     ...    0.1948134975
RMS gradient                       ...    0.0562378126
MAX gradient                       ...    0.1256268299

-------
TIMINGS
-------

Total SCF gradient time            ...        1.183 sec

One electron gradient       ....       0.013 sec  (  1.1%)
RI-J Coulomb gradient       ....       0.170 sec  ( 14.4%)
COSX gradient               ....       0.474 sec  ( 40.1%)
XC gradient                 ....       0.177 sec  ( 14.9%)

Maximum memory used throughout the entire SCFGRAD-calculation: 37.3 MB
------------------------------------------------------------------------------
                         ORCA GEOMETRY RELAXATION STEP
------------------------------------------------------------------------------

Reading the OPT-File                    .... done
Getting information on internals        .... done
Copying old internal coords+grads       .... done
Making the new internal coordinates     .... (new redundants).... done
Validating the new internal coordinates .... (new redundants).... done
Calculating the B-matrix                .... done
Calculating the G,G- and P matrices     .... done
Transforming gradient to internals      .... done
Projecting the internal gradient        .... done
Number of atoms                         ....   4
Number of internal coordinates          ....   7
Current Energy                          ....  -337.582944075 Eh
Current gradient norm                   ....     0.194813497 Eh/bohr
Maximum allowed component of the step   ....  0.300
Current trust radius                    ....  0.300
Evaluating the initial hessian          ....  (Almloef) done
Projecting the Hessian                  .... done
Forming the augmented Hessian           .... done
Diagonalizing the augmented Hessian     .... done
Last element of RFO vector              ....  0.993776785
Lowest eigenvalues of augmented Hessian:
 -0.008714229  0.684895726  0.684895726  0.693609955 1000.000000000
Length of the computed step             ....  0.112087409
The final length of the internal step   ....  0.112087409
Converting the step to cartesian space:
 Initial RMS(Int)=    0.0423650585
Transforming coordinates:
 Iter   0:  RMS(Cart)=    0.0292929806 RMS(Int)=    0.0423650586
 Iter   1:  RMS(Cart)=    0.0000000002 RMS(Int)=    0.0000000003
Imposing constraints:
 Iter   0:  RMS(Cart)=    0.0000000012 RMS(Int)=    0.0000000015
CONVERGED
done
Storing new coordinates                 .... done

                                .--------------------.
          ----------------------|Geometry convergence|-------------------------
          Item                value                   Tolerance       Converged
          ---------------------------------------------------------------------
          RMS gradient        0.0293848263            0.0001000000      NO
          MAX gradient        0.0449166693            0.0003000000      NO
          RMS step            0.0423650585            0.0020000000      NO
          MAX step            0.0647578211            0.0040000000      NO
          ........................................................
          Max(Bonds)      0.0343      Max(Angles)    0.00
          Max(Dihed)        0.00      Max(Improp)    0.00
          ---------------------------------------------------------------------

The optimization has not yet converged - more geometry cycles are needed


    ---------------------------------------------------------------------------
                         Redundant Internal Coordinates
                            (Angstroem and degrees)

        Definition                    Value    dE/dq     Step     New-Value
    ----------------------------------------------------------------------------
     1. B(F   1,C   0)                1.3150 -0.044825  0.0342    1.3492   
     2. B(F   2,C   0)                1.3150 -0.044917  0.0343    1.3493   
     3. B(F   3,C   0)                1.3150 -0.044917  0.0343    1.3493   
     4. A(F   2,C   0,F   3)           98.00 -0.127004    0.00     98.00 C 
     5. A(F   1,C   0,F   2)           98.00 -0.058670   -0.00     98.00 C 
     6. A(F   1,C   0,F   3)           98.00 -0.058670    0.00     98.00 C 
     7. I(F   1,F   3,F   2,C   0)     77.75  0.106477    0.00     77.75   
    ----------------------------------------------------------------------------

         *************************************************************
         *                GEOMETRY OPTIMIZATION CYCLE   2            *
         *************************************************************
---------------------------------
CARTESIAN COORDINATES (ANGSTROEM)
---------------------------------
  C      0.000022    0.000000    0.012597
  F      1.175790    0.000000   -0.649146
  F     -0.587906    1.018306   -0.649158
  F     -0.587906   -1.018306   -0.649158

----------------------------
CARTESIAN COORDINATES (A.U.)
----------------------------
  NO LB      ZA    FRAG     MASS         X           Y           Z
   0 C     6.0000    0    12.011    0.000041    0.000000    0.023805
   1 F     9.0000    0    18.998    2.221922    0.000000   -1.226708
   2 F     9.0000    0    18.998   -1.110981    1.924319   -1.226731
   3 F     9.0000    0    18.998   -1.110981   -1.924319   -1.226731

--------------------------------
INTERNAL COORDINATES (ANGSTROEM)
--------------------------------
 C      0   0   0     0.000000000000     0.00000000     0.00000000
 F      1   0   0     1.349198267401     0.00000000     0.00000000
 F      1   2   0     1.349268360579    98.00000007     0.00000000
 F      1   2   3     1.349268362988    98.00000007    99.30405940

---------------------------
INTERNAL COORDINATES (A.U.)
---------------------------
 C      0   0   0     0.000000000000     0.00000000     0.00000000
 F      1   0   0     2.549615225749     0.00000000     0.00000000
 F      1   2   0     2.549747682660    98.00000007     0.00000000
 F      1   2   3     2.549747687211    98.00000007    99.30405940



           ************************************************************
           *        Program running with 18 parallel MPI-processes    *
           *              working on a common directory               *
           ************************************************************
------------------------------------------------------------------------------
                   ___                                                        
                  /   \      - P O W E R E D   B Y -                         
                 /     \                                                     
                 |  |  |   _    _      __       _____    __    __             
                 |  |  |  | |  | |    /  \     |  _  \  |  |  /  |          
                  \  \/   | |  | |   /    \    | | | |  |  | /  /          
                 / \  \   | |__| |  /  /\  \   | |_| |  |  |/  /          
                |  |  |   |  __  | /  /__\  \  |    /   |      \           
                |  |  |   | |  | | |   __   |  |    \   |  |\   \          
                \     /   | |  | | |  |  |  |  | |\  \  |  | \   \       
                 \___/    |_|  |_| |__|  |__|  |_| \__\ |__|  \__/        
                                                                              
                      - O R C A' S   B I G   F R I E N D -                    
                                      &                                       
                       - I N T E G R A L  F E E D E R -                       
                                                                              
 v1 FN, 2020, v2 2021                                                         
------------------------------------------------------------------------------


Reading SHARK input file /beegfs/scratch/ispackman/PFAS_EPR_calcs/benchmark/JChemEd_CF3_radical/CF3_radical_98.0_degrees_IN-PROGRESS/CF3_radical_98.0_degrees.SHARKINP.tmp ... ok
----------------------
SHARK INTEGRAL PACKAGE
----------------------

Number of atoms                             ...      4
Number of basis functions                   ...    157
Number of shells                            ...     55
Maximum angular momentum                    ...      3
Integral batch strategy                     ... SHARK/LIBINT Hybrid
RI-J (if used) integral strategy            ... SPLIT-RIJ (Revised 2003 algorithm where possible)
Printlevel                                  ...      1
Contraction scheme used                     ... SEGMENTED contraction
Coulomb Range Separation                    ... NOT USED
Exchange Range Separation                   ... Long Range
   Mu parameter                             ...  0.250000
   Scaling (regular/separated)              ...  0.195728  0.804272
Finite Nucleus Model                        ... NOT USED
Auxiliary Coulomb fitting basis             ... AVAILABLE
   # of basis functions in Aux-J            ...    196
   # of shells in Aux-J                     ...     60
   Maximum angular momentum in Aux-J        ...      4
Auxiliary J/K fitting basis                 ... NOT available
Auxiliary Correlation fitting basis         ... NOT available
Auxiliary 'external' fitting basis          ... NOT available
Integral threshold                          ...     2.500000e-11
Primitive cut-off                           ...     2.500000e-12
Primitive pair pre-selection threshold      ...     2.500000e-12

Calculating pre-screening integrals         ... done (  0.0 sec) Dimension = 55
Organizing shell pair data                  ... done (  0.0 sec)
Shell pair information
Total number of shell pairs                 ...      1540
Shell pairs after pre-screening             ...      1510
Total number of primitive shell pairs       ...      4274
Primitive shell pairs kept                  ...      3575
          la=0 lb=0:    282 shell pairs
          la=1 lb=0:    360 shell pairs
          la=1 lb=1:    120 shell pairs
          la=2 lb=0:    276 shell pairs
          la=2 lb=1:    180 shell pairs
          la=2 lb=2:     78 shell pairs
          la=3 lb=0:     96 shell pairs
          la=3 lb=1:     60 shell pairs
          la=3 lb=2:     48 shell pairs
          la=3 lb=3:     10 shell pairs

Calculating one electron integrals          ... done (  0.0 sec)
Calculating RI/J V-Matrix + Cholesky decomp.... done (  0.0 sec)
Calculating Nuclear repulsion               ... done (  0.0 sec) ENN=    126.677111526192 Eh

SHARK setup successfully completed in   0.3 seconds

Maximum memory used throughout the entire GTOINT-calculation: 15.2 MB


           ************************************************************
           *        Program running with 18 parallel MPI-processes    *
           *              working on a common directory               *
           ************************************************************

Diagonalization of the overlap matrix:
Smallest eigenvalue                        ... 4.040e-04
Time for diagonalization                   ...    0.008 sec
Threshold for overlap eigenvalues          ... 1.000e-08
Number of eigenvalues below threshold      ... 0
Time for construction of square roots      ...    0.013 sec
Total time needed                          ...    0.022 sec

-------------------
DFT GRID GENERATION
-------------------

General Integration Accuracy     IntAcc      ... 4.388
Radial Grid Type                 RadialGrid  ... OptM3 with GC (2021)
Angular Grid (max. ang.)         AngularGrid ... 4 (Lebedev-302)
Angular grid pruning method      GridPruning ... 4 (adaptive)
Weight generation scheme         WeightScheme... Becke
Basis function cutoff            BFCut       ... 1.0000e-11
Integration weight cutoff        WCut        ... 1.0000e-14
Angular grids for H and He will be reduced by one unit
Partially contracted basis set               ... off
Rotationally invariant grid construction     ... off

Total number of grid points                  ...    25782
Total number of batches                      ...      406
Average number of points per batch           ...       63
Average number of grid points per atom       ...     6446
Time for grid setup =    0.152 sec

--------------------
COSX GRID GENERATION
--------------------

GRIDX 1
-------
General Integration Accuracy     IntAcc      ... 3.816
Radial Grid Type                 RadialGrid  ... OptM3 with GC (2021)
Angular Grid (max. ang.)         AngularGrid ... 1 (Lebedev-50)
Angular grid pruning method      GridPruning ... 4 (adaptive)
Weight generation scheme         WeightScheme... Becke
Basis function cutoff            BFCut       ... 1.0000e-11
Integration weight cutoff        WCut        ... 1.0000e-14
Angular grids for H and He will be reduced by one unit
Partially contracted basis set               ... on
Rotationally invariant grid construction     ... off

Total number of grid points                  ...     3274
Total number of batches                      ...       53
Average number of points per batch           ...       61
Average number of grid points per atom       ...      818
UseSFitting                                  ... on

GRIDX 2
-------
General Integration Accuracy     IntAcc      ... 4.020
Radial Grid Type                 RadialGrid  ... OptM3 with GC (2021)
Angular Grid (max. ang.)         AngularGrid ... 2 (Lebedev-110)
Angular grid pruning method      GridPruning ... 4 (adaptive)
Weight generation scheme         WeightScheme... Becke
Basis function cutoff            BFCut       ... 1.0000e-11
Integration weight cutoff        WCut        ... 1.0000e-14
Angular grids for H and He will be reduced by one unit
Partially contracted basis set               ... on
Rotationally invariant grid construction     ... off

Total number of grid points                  ...     9132
Total number of batches                      ...      145
Average number of points per batch           ...       62
Average number of grid points per atom       ...     2283
UseSFitting                                  ... on

GRIDX 3
-------
General Integration Accuracy     IntAcc      ... 4.338
Radial Grid Type                 RadialGrid  ... OptM3 with GC (2021)
Angular Grid (max. ang.)         AngularGrid ... 3 (Lebedev-194)
Angular grid pruning method      GridPruning ... 4 (adaptive)
Weight generation scheme         WeightScheme... Becke
Basis function cutoff            BFCut       ... 1.0000e-11
Integration weight cutoff        WCut        ... 1.0000e-14
Angular grids for H and He will be reduced by one unit
Partially contracted basis set               ... on
Rotationally invariant grid construction     ... off

Total number of grid points                  ...    19689
Total number of batches                      ...      309
Average number of points per batch           ...       63
Average number of grid points per atom       ...     4922
UseSFitting                                  ... on

Time for X-Grid setup             =    0.357 sec

--------------
SCF ITERATIONS
[...]
  VA   - Mayer's total valence
  BVA  - Mayer's bonded valence
  FA   - Mayer's free valence

  ATOM       NA         ZA         QA         VA         BVA        FA
  0 C      5.4644     6.0000     0.5356     3.7785     3.1787     0.5997
  1 F      9.1784     9.0000    -0.1784     1.0299     1.0245     0.0054
  2 F      9.1786     9.0000    -0.1786     1.0295     1.0241     0.0054
  3 F      9.1786     9.0000    -0.1786     1.0295     1.0241     0.0054

  Mayer bond orders larger than 0.100000
B(  0-C ,  1-F ) :   1.0598 B(  0-C ,  2-F ) :   1.0595 B(  0-C ,  3-F ) :   1.0595 


-------
TIMINGS
-------

Total SCF time: 0 days 0 hours 0 min 4 sec 

Total time                  ....       4.819 sec
Sum of individual times     ....       4.078 sec  ( 84.6%)

Fock matrix formation       ....       3.256 sec  ( 67.6%)
  Split-RI-J                ....       0.515 sec  ( 15.8% of F)
  Chain of spheres X        ....       1.338 sec  ( 41.1% of F)
  XC integration            ....       0.642 sec  ( 19.7% of F)
    Basis function eval.    ....       0.042 sec  (  6.5% of XC)
    Density eval.           ....       0.051 sec  (  8.0% of XC)
    XC-Functional eval.     ....       0.023 sec  (  3.6% of XC)
    XC-Potential eval.      ....       0.068 sec  ( 10.5% of XC)
Diagonalization             ....       0.113 sec  (  2.3%)
Density matrix formation    ....       0.007 sec  (  0.1%)
Population analysis         ....       0.135 sec  (  2.8%)
Initial guess               ....       0.020 sec  (  0.4%)
Orbital Transformation      ....       0.000 sec  (  0.0%)
Orbital Orthonormalization  ....       0.012 sec  (  0.2%)
DIIS solution               ....       0.044 sec  (  0.9%)
Grid generation             ....       0.503 sec  ( 10.4%)

Maximum memory used throughout the entire SCF-calculation: 63.2 MB


-------------------------------------------------------------------------------
                          DFT DISPERSION CORRECTION                            
                                                                               
                              DFTD3 V3.1  Rev 1                                
                              USING zero damping                               
-------------------------------------------------------------------------------
The omegaB97X-D3 functional is recognized. Fit by Chai et al.
Active option DFTDOPT                   ...         3   

molecular C6(AA) [au] = 165.607414 


            DFT-D V3
 parameters
 s6 scaling factor         :     1.0000 
 rs6 scaling factor        :     1.2810 
 s8 scaling factor         :     1.0000 
 rs8 scaling factor        :     1.0940 
 Damping factor alpha6     :    14.0000 
 Damping factor alpha8     :    16.0000 
 ad hoc parameters k1-k3   :    16.0000     1.3333    -4.0000 

 Edisp/kcal,au: -0.032767562553  -0.000052218429 
 E6   /kcal   :  -0.004157894 
 E8   /kcal   :  -0.028609668 
 % E8         :  87.310944842 

-------------------------   ----------------
Dispersion correction           -0.000052218
-------------------------   ----------------


-------------------------   --------------------
FINAL SINGLE POINT ENERGY      -337.587716774632
-------------------------   --------------------

                                *** OPTIMIZATION RUN DONE ***

                            ***************************************
                            *     ORCA property calculations      *
                            ***************************************

                                    ---------------------
                                    Active property flags
                                    ---------------------
   (+) Dipole Moment


------------------------------------------------------------------------------
                       ORCA ELECTRIC PROPERTIES CALCULATION
------------------------------------------------------------------------------

Dipole Moment Calculation                       ... on
Quadrupole Moment Calculation                   ... off
Polarizability Calculation                      ... off
GBWName                                         ... /beegfs/scratch/ispackman/PFAS_EPR_calcs/benchmark/JChemEd_CF3_radical/CF3_radical_98.0_degrees_IN-PROGRESS/CF3_radical_98.0_degrees.gbw
Electron density                                ... /beegfs/scratch/ispackman/PFAS_EPR_calcs/benchmark/JChemEd_CF3_radical/CF3_radical_98.0_degrees_IN-PROGRESS/CF3_radical_98.0_degrees.scfp
The origin for moment calculation is the CENTER OF MASS  = (-0.000007,  0.000000 -1.009456)

-------------
DIPOLE MOMENT
-------------
                                X             Y             Z
Electronic contribution:      0.00017      -0.00000       0.14830
Nuclear contribution   :      0.00002      -0.00000       0.32151
                        -----------------------------------------
Total Dipole Moment    :      0.00019      -0.00000       0.46981
                        -----------------------------------------
Magnitude (a.u.)       :      0.46981
Magnitude (Debye)      :      1.19416



--------------------
Rotational spectrum 
--------------------
 
Rotational constants in cm-1:     0.382184     0.382146     0.212152 
Rotational constants in MHz : 11457.586559 11456.452766  6360.164094 

 Dipole components along the rotational axes: 
x,y,z [a.u.] :    -0.000001    -0.000200     0.469811 
x,y,z [Debye]:    -0.000002    -0.000508     1.194164 

 


           ************************************************************
           *        Program running with 18 parallel MPI-processes    *
           *              working on a common directory               *
           ************************************************************

-------------------------------------------------------------------------------
                               ORCA SCF HESSIAN
-------------------------------------------------------------------------------

                   --------- SHARK INITIALIZATION DONE ---------

Hessian of the Kohn-Sham DFT energy:
Kohn-Sham wavefunction type                      ... UKS
Hartree-Fock exchange scaling                    ...    0.196
Number of operators                              ...    2
Number of atoms                                  ...    4
Basis set dimensions                             ...  157
Integral neglect threshold                       ... 2.5e-11
Integral primitive cutoff                        ... 2.5e-12

Setting up DFT Hessian calculations              ... 

HESS GRID
---------

General Integration Accuracy     IntAcc      ... 4.629
Radial Grid Type                 RadialGrid  ... OptM3 with GC (2021)
Angular Grid (max. ang.)         AngularGrid ... 5 (Lebedev-434)
Angular grid pruning method      GridPruning ... 4 (adaptive)
Weight generation scheme         WeightScheme... Becke
Basis function cutoff            BFCut       ... 1.0000e-11
Integration weight cutoff        WCut        ... 1.0000e-14
Angular grids for H and He will be reduced by one unit
Partially contracted basis set               ... off
Rotationally invariant grid construction     ... off

Total number of grid points                  ...    39979
Total number of batches                      ...      627
Average number of points per batch           ...       63
Average number of grid points per atom       ...     9995

Building densities                               ... done   (      0.0 sec)
Calculating rho(r) on the grid                   ... done   (      0.2 sec)
Building xc-kernel on the grid                   ... done   (      0.1 sec)
                                                     done   (      0.7 sec)

Nuclear repulsion Hessian  (SHARK)               ... done   (      0.0 sec)

----------------------------------------------
Forming right-hand sides of CP-SCF equations     ...
----------------------------------------------
One electron integral derivatives  (SHARK)       ... done   (      0.0 sec)
Transforming the overlap derivative matrices     ... done   (      0.0 sec)
Making the Q(x) pseudodensities                  ... done   (      0.0 sec)
Adding the E*S(x)*S(y) terms to the Hessian      ... done   (      0.0 sec)
Calculating energy weighted overlap derivatives  ... done   (      0.1 sec)
Two electron integral derivatives (SHARK-RI)     ... done   (      2.4 sec)
Exchange-correlation integral derivatives        ... done   (      2.3 sec)
tr(F(y)Q(x)) contribution to the Hessian         ... done   (      0.0 sec)
Response fock operator R(S(x)) (SHARK-RIJCOSX)   ... done   (      0.9 sec)
XC Response fock operator R(S(x))                ... done   (      0.5 sec)
tr(F(y)S(x)) contribution to the Hessian         ... done   (      0.0 sec)
Transforming and finalizing RHSs                 ... done   (      0.1 sec)

----------------------------------------------
Solving the CP-SCF equations (RIJCOSX)           ...
----------------------------------------------
     CP-SCF ITERATION   0:   1.6069e-01 (   0.5 sec   0/ 12 done)
     CP-SCF ITERATION   1:   5.6482e-02 (   0.5 sec   0/ 12 done)
     CP-SCF ITERATION   2:   2.2069e-02 (   0.5 sec   0/ 12 done)
     CP-SCF ITERATION   3:   6.5630e-03 (   0.5 sec   0/ 12 done)
     CP-SCF ITERATION   4:   2.4433e-03 (   0.5 sec   0/ 12 done)
     CP-SCF ITERATION   5:   1.0389e-03 (   0.5 sec   1/ 12 done)
     CP-SCF ITERATION   6:   3.3519e-04 (   0.4 sec   2/ 12 done)
     CP-SCF ITERATION   7:   8.5340e-05 (   0.4 sec  12/ 12 done)
                    *** THE CP-SCF HAS CONVERGED ***

                                                 ... done   (      4.0 sec)
Forming perturbed density Hessian contributions  ... done   (      0.0 sec)
2nd integral derivative contribs (SHARK-RI)      ... done   (      6.8 sec)
Exchange-correlation Hessian                     ... done   (      0.9 sec)
Dispersion correction in the Hessian             ... done   (      0.1 sec)
Dipole derivatives                               ... (center of mass: -0.000007,  0.000000 -1.009456)done   (      0.1 sec)

Total SCF Hessian time: 0 days 0 hours 0 min 19 sec 

Writing the Hessian file to the disk             ... done


Maximum memory used throughout the entire SCFHESS-calculation: 146.0 MB

-----------------------
VIBRATIONAL FREQUENCIES
-----------------------

Scaling factor for frequencies =  1.000000000  (already applied!)

   0:         0.00 cm**-1
   1:         0.00 cm**-1
   2:         0.00 cm**-1
   3:         0.00 cm**-1
   4:         0.00 cm**-1
   5:         0.00 cm**-1
   6:       591.47 cm**-1
   7:       592.47 cm**-1
   8:       791.54 cm**-1
   9:      1025.72 cm**-1
  10:      1026.14 cm**-1
  11:      1077.84 cm**-1


------------
NORMAL MODES
------------

These modes are the Cartesian displacements weighted by the diagonal matrix
M(i,i)=1/sqrt(m[i]) where m[i] is the mass of the displaced atom
Thus, these vectors are normalized but *not* orthogonal

                  0          1          2          3          4          5    
      0       0.000000   0.000000   0.000000   0.000000   0.000000   0.000000
      1       0.000000   0.000000   0.000000   0.000000   0.000000   0.000000
      2       0.000000   0.000000   0.000000   0.000000   0.000000   0.000000
      3       0.000000   0.000000   0.000000   0.000000   0.000000   0.000000
      4       0.000000   0.000000   0.000000   0.000000   0.000000   0.000000
      5       0.000000   0.000000   0.000000   0.000000   0.000000   0.000000
      6       0.000000   0.000000   0.000000   0.000000   0.000000   0.000000
      7       0.000000   0.000000   0.000000   0.000000   0.000000   0.000000
      8       0.000000   0.000000   0.000000   0.000000   0.000000   0.000000
      9       0.000000   0.000000   0.000000   0.000000   0.000000   0.000000
     10       0.000000   0.000000   0.000000   0.000000   0.000000   0.000000
     11       0.000000   0.000000   0.000000   0.000000   0.000000   0.000000
                  6          7          8          9         10         11    
      0       0.295317  -0.000006   0.000374   0.001137  -0.881093   0.000126
      1      -0.000006  -0.294696   0.000000  -0.881210  -0.001137  -0.000005
      2       0.000661  -0.000000   0.581760   0.000004   0.000245  -0.829050
      3       0.482811  -0.000011  -0.454275  -0.000412   0.320341  -0.271659
      4       0.000013   0.608094  -0.000000   0.050968   0.000066   0.000000
      5       0.069921  -0.000001  -0.122527   0.000269  -0.209061   0.174756
      6      -0.334749   0.472818   0.227019  -0.116847   0.118203   0.135789
      7      -0.473392  -0.210880  -0.391804   0.253230  -0.116962  -0.234971
      8      -0.035171  -0.060532  -0.122638  -0.181159   0.104219   0.174694
      9      -0.334769  -0.472803   0.227019   0.116541   0.118504   0.135790
     10       0.473383  -0.210900   0.391804   0.252925   0.117615   0.234973
     11      -0.035168   0.060534  -0.122638   0.180888   0.104686   0.174696


-----------
IR SPECTRUM
-----------

 Mode   freq       eps      Int      T**2         TX        TY        TZ
       cm**-1   L/(mol*cm) km/mol    a.u.
----------------------------------------------------------------------------
  6:    591.47   0.000297    1.50  0.000157  ( 0.012514 -0.000000  0.000049)
  7:    592.47   0.000292    1.47  0.000154  (-0.000000 -0.012395 -0.000000)
  8:    791.54   0.002841   14.36  0.001120  ( 0.000105  0.000000  0.033467)
  9:   1025.72   0.058409  295.17  0.017770  ( 0.000172 -0.133305  0.000000)
 10:   1026.14   0.058448  295.37  0.017775  (-0.133322 -0.000172  0.000009)
 11:   1077.84   0.008953   45.24  0.002592  ( 0.000057 -0.000001 -0.050912)

* The epsilon (eps) is given for a Dirac delta lineshape.
** The dipole moment derivative (T) already includes vibrational overlap.

The first frequency considered to be a vibration is 6
The total number of vibrations considered is 6


--------------------------
THERMOCHEMISTRY AT 298.15K
--------------------------

Temperature         ... 298.15 K
Pressure            ... 1.00 atm
Total Mass          ... 69.00 AMU

Throughout the following assumptions are being made:
  (1) The electronic state is orbitally nondegenerate
      but the spin degeneracy is treated
  (2) There are no thermally accessible electronically excited states
  (3) Hindered rotations indicated by low frequency modes are not
      treated as such but are treated as vibrations and this may
      cause some error
  (4) All equations used are the standard statistical mechanics
      equations for an ideal gas
  (5) All vibrations are strictly harmonic

freq.     591.47  E(vib)   ...       0.10 
freq.     592.47  E(vib)   ...       0.10 
freq.     791.54  E(vib)   ...       0.05 
freq.    1025.72  E(vib)   ...       0.02 
freq.    1026.14  E(vib)   ...       0.02 
freq.    1077.84  E(vib)   ...       0.02 

------------
INNER ENERGY
------------

The inner energy is: U= E(el) + E(ZPE) + E(vib) + E(rot) + E(trans)
    E(el)   - is the total energy from the electronic structure calculation
              = E(kin-el) + E(nuc-el) + E(el-el) + E(nuc-nuc)
    E(ZPE)  - the the zero temperature vibrational energy from the frequency calculation
    E(vib)  - the the finite temperature correction to E(ZPE) due to population
              of excited vibrational states
    E(rot)  - is the rotational thermal energy
    E(trans)- is the translational thermal energy

Summary of contributions to the inner energy U:
Electronic energy                ...   -337.58771677 Eh
Zero point energy                ...      0.01163045 Eh       7.30 kcal/mol
Thermal vibrational correction   ...      0.00050363 Eh       0.32 kcal/mol
Thermal rotational correction    ...      0.00141627 Eh       0.89 kcal/mol
Thermal translational correction ...      0.00141627 Eh       0.89 kcal/mol
-----------------------------------------------------------------------
Total thermal energy                   -337.57275014 Eh


Summary of corrections to the electronic energy:
(perhaps to be used in another calculation)
Total thermal correction                  0.00333618 Eh       2.09 kcal/mol
Non-thermal (ZPE) correction              0.01163045 Eh       7.30 kcal/mol
-----------------------------------------------------------------------
Total correction                          0.01496663 Eh       9.39 kcal/mol


--------
ENTHALPY
--------

The enthalpy is H = U + kB*T
                kB is Boltzmann's constant
Total free energy                 ...   -337.57275014 Eh 
Thermal Enthalpy correction       ...      0.00094421 Eh       0.59 kcal/mol
-----------------------------------------------------------------------
Total Enthalpy                    ...   -337.57180594 Eh


Note: Rotational entropy computed according to Herzberg 
Infrared and Raman Spectra, Chapter V,1, Van Nostrand Reinhold, 1945 
Point Group:  C3v, Symmetry Number:   3  
Rotational constants in cm-1:     0.382184     0.382146     0.212152 

Vibrational entropy computed according to the QRRHO of S. Grimme
Chem.Eur.J. 2012 18 9955


-------
ENTROPY
-------

The entropy contributions are T*S = T*(S(el)+S(vib)+S(rot)+S(trans))
     S(el)   - electronic entropy
     S(vib)  - vibrational entropy
     S(rot)  - rotational entropy
     S(trans)- translational entropy
The entropies will be listed as multiplied by the temperature to get
units of energy

Electronic entropy                ...      0.00065446 Eh      0.41 kcal/mol
Vibrational entropy               ...      0.00065556 Eh      0.41 kcal/mol
Rotational entropy                ...      0.01011368 Eh      6.35 kcal/mol
Translational entropy             ...      0.01834582 Eh     11.51 kcal/mol
-----------------------------------------------------------------------
Final entropy term                ...      0.02976951 Eh     18.68 kcal/mol

In case the symmetry of your molecule has not been determined correctly
or in case you have a reason to use a different symmetry number we print 
out the resulting rotational entropy values for sn=1,12 :
 --------------------------------------------------------
|  sn= 1 | S(rot)=       0.01115097 Eh      7.00 kcal/mol|
|  sn= 2 | S(rot)=       0.01049652 Eh      6.59 kcal/mol|
|  sn= 3 | S(rot)=       0.01011368 Eh      6.35 kcal/mol|
|  sn= 4 | S(rot)=       0.00984206 Eh      6.18 kcal/mol|
|  sn= 5 | S(rot)=       0.00963137 Eh      6.04 kcal/mol|
|  sn= 6 | S(rot)=       0.00945923 Eh      5.94 kcal/mol|
|  sn= 7 | S(rot)=       0.00931368 Eh      5.84 kcal/mol|
|  sn= 8 | S(rot)=       0.00918760 Eh      5.77 kcal/mol|
|  sn= 9 | S(rot)=       0.00907640 Eh      5.70 kcal/mol|
|  sn=10 | S(rot)=       0.00897692 Eh      5.63 kcal/mol|
|  sn=11 | S(rot)=       0.00888693 Eh      5.58 kcal/mol|
|  sn=12 | S(rot)=       0.00880477 Eh      5.53 kcal/mol|
 --------------------------------------------------------


-------------------
GIBBS FREE ENERGY
-------------------

The Gibbs free energy is G = H - T*S

Total enthalpy                    ...   -337.57180594 Eh 
Total entropy correction          ...     -0.02976951 Eh    -18.68 kcal/mol
-----------------------------------------------------------------------
Final Gibbs free energy         ...   -337.60157545 Eh

For completeness - the Gibbs free energy minus the electronic energy
G-E(el)                           ...     -0.01385867 Eh     -8.70 kcal/mol


Timings for individual modules:

Sum of individual times         ...      110.258 sec (=   1.838 min)
GTO integral calculation        ...       14.999 sec (=   0.250 min)  13.6 %
SCF iterations                  ...       56.317 sec (=   0.939 min)  51.1 %
SCF Gradient evaluation         ...       16.505 sec (=   0.275 min)  15.0 %
Geometry relaxation             ...        0.211 sec (=   0.004 min)   0.2 %
Analytical frequency calculation...       22.226 sec (=   0.370 min)  20.2 %
                             ****ORCA TERMINATED NORMALLY****
TOTAL RUN TIME: 0 days 0 hours 2 minutes 6 seconds 252 msec

slurmID:    32260087
totalRuntime[s]:    126.291156811
