
                                 *****************
                                 * O   R   C   A *
                                 *****************

                                            #,                                       
                                            ###                                      
                                            ####                                     
                                            #####                                    
                                            ######                                   
                                           ########,                                 
                                     ,,################,,,,,                         
                               ,,#################################,,                 
                          ,,##########################################,,             
                       ,#########################################, ''#####,          
                    ,#############################################,,   '####,        
                  ,##################################################,,,,####,       
                ,###########''''           ''''###############################       
              ,#####''   ,,,,##########,,,,          '''####'''          '####       
            ,##' ,,,,###########################,,,                        '##       
           ' ,,###''''                  '''############,,,                           
         ,,##''                                '''############,,,,        ,,,,,,###''
      ,#''                                            '''#######################'''  
     '                                                          ''''####''''         
             ,#######,   #######,   ,#######,      ##                                
            ,#'     '#,  ##    ##  ,#'     '#,    #''#        ######   ,####,        
            ##       ##  ##   ,#'  ##            #'  '#       #        #'  '#        
            ##       ##  #######   ##           ,######,      #####,   #    #        
            '#,     ,#'  ##    ##  '#,     ,#' ,#      #,         ##   #,  ,#        
             '#######'   ##     ##  '#######'  #'      '#     #####' # '####'        



                  #######################################################
                  #                        -***-                        #
                  #          Department of theory and spectroscopy      #
                  #    Directorship and core code : Frank Neese         #
                  #        Max Planck Institute fuer Kohlenforschung    #
                  #                Kaiser Wilhelm Platz 1               #
                  #                 D-45470 Muelheim/Ruhr               #
                  #                      Germany                        #
                  #                                                     #
                  #                  All rights reserved                #
                  #                        -***-                        #
                  #######################################################


                         Program Version 5.0.4 -  RELEASE  -


 With contributions from (in alphabetic order):
   Daniel Aravena         : Magnetic Suceptibility
   Michael Atanasov       : Ab Initio Ligand Field Theory (pilot matlab implementation)
   Alexander A. Auer      : GIAO ZORA, VPT2 properties, NMR spectrum
   Ute Becker             : Parallelization
   Giovanni Bistoni       : ED, misc. LED, open-shell LED, HFLD
   Martin Brehm           : Molecular dynamics
   Dmytro Bykov           : SCF Hessian
   Vijay G. Chilkuri      : MRCI spin determinant printing, contributions to CSF-ICE
   Dipayan Datta          : RHF DLPNO-CCSD density
   Achintya Kumar Dutta   : EOM-CC, STEOM-CC
   Dmitry Ganyushin       : Spin-Orbit,Spin-Spin,Magnetic field MRCI
   Miquel Garcia          : C-PCM and meta-GGA Hessian, CC/C-PCM, Gaussian charge scheme
   Yang Guo               : DLPNO-NEVPT2, F12-NEVPT2, CIM, IAO-localization
   Andreas Hansen         : Spin unrestricted coupled pair/coupled cluster methods
   Benjamin Helmich-Paris : MC-RPA, TRAH-SCF, COSX integrals
   Lee Huntington         : MR-EOM, pCC
   Robert Izsak           : Overlap fitted RIJCOSX, COSX-SCS-MP3, EOM
   Marcus Kettner         : VPT2
   Christian Kollmar      : KDIIS, OOCD, Brueckner-CCSD(T), CCSD density, CASPT2, CASPT2-K
   Simone Kossmann        : Meta GGA functionals, TD-DFT gradient, OOMP2, MP2 Hessian
   Martin Krupicka        : Initial AUTO-CI
   Lucas Lang             : DCDCAS
   Marvin Lechner         : AUTO-CI (C++ implementation), FIC-MRCC
   Dagmar Lenk            : GEPOL surface, SMD
   Dimitrios Liakos       : Extrapolation schemes; Compound Job, initial MDCI parallelization
   Dimitrios Manganas     : Further ROCIS development; embedding schemes
   Dimitrios Pantazis     : SARC Basis sets
   Anastasios Papadopoulos: AUTO-CI, single reference methods and gradients
   Taras Petrenko         : DFT Hessian,TD-DFT gradient, ASA, ECA, R-Raman, ABS, FL, XAS/XES, NRVS
   Peter Pinski           : DLPNO-MP2, DLPNO-MP2 Gradient
   Christoph Reimann      : Effective Core Potentials
   Marius Retegan         : Local ZFS, SOC
   Christoph Riplinger    : Optimizer, TS searches, QM/MM, DLPNO-CCSD(T), (RO)-DLPNO pert. Triples
   Tobias Risthaus        : Range-separated hybrids, TD-DFT gradient, RPA, STAB
   Michael Roemelt        : Original ROCIS implementation
   Masaaki Saitow         : Open-shell DLPNO-CCSD energy and density
   Barbara Sandhoefer     : DKH picture change effects
   Avijit Sen             : IP-ROCIS
   Kantharuban Sivalingam : CASSCF convergence, NEVPT2, FIC-MRCI
   Bernardo de Souza      : ESD, SOC TD-DFT
   Georgi Stoychev        : AutoAux, RI-MP2 NMR, DLPNO-MP2 response
   Willem Van den Heuvel  : Paramagnetic NMR
   Boris Wezisla          : Elementary symmetry handling
   Frank Wennmohs         : Technical directorship


 We gratefully acknowledge several colleagues who have allowed us to
 interface, adapt or use parts of their codes:
   Stefan Grimme, W. Hujo, H. Kruse, P. Pracht,  : VdW corrections, initial TS optimization,
                  C. Bannwarth, S. Ehlert          DFT functionals, gCP, sTDA/sTD-DF
   Ed Valeev, F. Pavosevic, A. Kumar             : LibInt (2-el integral package), F12 methods
   Garnet Chan, S. Sharma, J. Yang, R. Olivares  : DMRG
   Ulf Ekstrom                                   : XCFun DFT Library
   Mihaly Kallay                                 : mrcc  (arbitrary order and MRCC methods)
   Jiri Pittner, Ondrej Demel                    : Mk-CCSD
   Frank Weinhold                                : gennbo (NPA and NBO analysis)
   Christopher J. Cramer and Donald G. Truhlar   : smd solvation model
   Lars Goerigk                                  : TD-DFT with DH, B97 family of functionals
   V. Asgeirsson, H. Jonsson                     : NEB implementation
   FAccTs GmbH                                   : IRC, NEB, NEB-TS, DLPNO-Multilevel, CI-OPT
                                                   MM, QMMM, 2- and 3-layer-ONIOM, Crystal-QMMM,
                                                   LR-CPCM, SF, NACMEs, symmetry and pop. for TD-DFT,
                                                   nearIR, NL-DFT gradient (VV10), updates on ESD,
                                                   ML-optimized integration grids
   S Lehtola, MJT Oliveira, MAL Marques          : LibXC Library
   Liviu Ungur et al                             : ANISO software


 Your calculation uses the libint2 library for the computation of 2-el integrals
 For citations please refer to: http://libint.valeyev.net

 Your ORCA version has been built with support for libXC version: 5.1.0
 For citations please refer to: https://tddft.org/programs/libxc/

 This ORCA versions uses:
   CBLAS   interface :  Fast vector & matrix operations
   LAPACKE interface :  Fast linear algebra routines
   SCALAPACK package :  Parallel linear algebra routines
   Shared memory     :  Shared parallel matrices
   BLAS/LAPACK       :  OpenBLAS 0.3.15  USE64BITINT DYNAMIC_ARCH NO_AFFINITY SkylakeX SINGLE_THREADED
        Core in use  :  SkylakeX
   Copyright (c) 2011-2014, The OpenBLAS Project


Your calculation utilizes the atom-pairwise dispersion correction
with the zero-damping scheme (D30)
Cite in your paper:
S.Grimme, J.Antony, S.Ehrlich and H.Krieg, J.Chem.Phys., 132, (2010), 154104 
   

XCFun DFT library Copyright 2009-2010 Ulf Ekstrom and contributors.
See http://admol.org/xcfun for more information.
This is free software; see the source code for copying conditions.
There is ABSOLUTELY NO WARRANTY; not even for MERCHANTABILITY or FITNESS FOR A PARTICULAR PURPOSE.
For details see the documentation.
Scientific users of this library should cite U. Ekstrom, L. Visscher, R. Bast, A. J. Thorvaldsen and K. Ruud;
J.Chem.Theor.Comp. 2010, DOI: 10.1021/ct100117s
XCFun Version 0.99 

================================================================================

----- Orbital basis set information -----
Your calculation utilizes the basis: def2-TZVPD
   F. Weigend and R. Ahlrichs, Phys. Chem. Chem. Phys. 7, 3297 (2005).
   D. Rappoport and F. Furche, J. Chem. Phys. 133 134105 (2010).

----- AuxJ basis set information -----
Your calculation utilizes the auxiliary basis: def2/J
   F. Weigend, Phys. Chem. Chem. Phys. 8, 1057 (2006).

================================================================================
                                        WARNINGS
                       Please study these warnings very carefully!
================================================================================


WARNING: Geometry Optimization
  ===> : Switching off AutoStart
         For restart on a previous wavefunction, please use MOREAD

INFO   : the flag for use of the SHARK integral package has been found!

================================================================================
                                       INPUT FILE
================================================================================
NAME = /beegfs/scratch/ispackman/PFAS_EPR_calcs/benchmark/JChemEd_CF3_radical/CF3_radical_111.5_degrees_IN-PROGRESS/CF3_radical_111.5_degrees.inp
|  1> ! UKS TightSCF wB97x-D3 def2-TZVPD xyzfile opt freq
|  2> 
|  3> # CF3 radical 111.5 degrees fixed
|  4> 
|  5> %maxcore 1000
|  6> %pal
|  7> nprocs 18
|  8> end
|  9> 
| 10> %geom Constraints
| 11>         { A * 0 * C }
| 12>     end
| 13> end
| 14> * xyz 0 2
| 15> C 0.00 0.00 0.00
| 16> F 1.2551196713 0.0000000000 -0.3923004089
| 17> F -0.6275598356 1.0869655201 -0.3923004089
| 18> F -0.6275598356 -1.0869655201 -0.3923004089
| 19> **                         ****END OF INPUT****
================================================================================

                       *****************************
                       * Geometry Optimization Run *
                       *****************************

Geometry optimization settings:
Update method            Update   .... BFGS
Choice of coordinates    CoordSys .... Z-matrix Internals
Initial Hessian          InHess   .... Almoef's Model

Convergence Tolerances:
Energy Change            TolE     ....  5.0000e-06 Eh
Max. Gradient            TolMAXG  ....  3.0000e-04 Eh/bohr
RMS Gradient             TolRMSG  ....  1.0000e-04 Eh/bohr
Max. Displacement        TolMAXD  ....  4.0000e-03 bohr
RMS Displacement         TolRMSD  ....  2.0000e-03 bohr
Strict Convergence                ....  False
------------------------------------------------------------------------------
                        ORCA OPTIMIZATION COORDINATE SETUP
------------------------------------------------------------------------------

The optimization will be done in new redundant internal coordinates
Making redundant internal coordinates   ...  (new redundants) done
Evaluating the initial hessian          ...  (Almloef) done
Evaluating the coordinates              ...  done
Calculating the B-matrix                .... done
Calculating the G-matrix                .... done
Diagonalizing the G-matrix              .... done
Imposing constraints:
 Iter   0:  RMS(Cart)=    0.0000000000 RMS(Int)=    0.0000000000
CONVERGED
Will constrain atom 0 coordinate 1 
Will constrain atom 0 coordinate 2 
Will constrain atom 1 coordinate 2 
The first mode is                       ....    1
The number of degrees of freedom        ....    6
Storing new coordinates                 .... done

    -----------------------------------------------------------------
                    Redundant Internal Coordinates


    -----------------------------------------------------------------
         Definition                    Initial Value    Approx d2E/dq
    -----------------------------------------------------------------
      1. B(F   1,C   0)                  1.3150         0.684896   
      2. B(F   2,C   0)                  1.3150         0.684896   
      3. B(F   3,C   0)                  1.3150         0.684896   
      4. A(F   2,C   0,F   3)          111.5000         0.440101 C 
      5. A(F   1,C   0,F   2)          111.5000         0.440101 C 
      6. A(F   1,C   0,F   3)          111.5000         0.440101 C 
      7. I(F   1,F   3,F   2,C   0)     49.3675         0.018003   
    -----------------------------------------------------------------

Number of atoms                         .... 4
Number of degrees of freedom            .... 7

         *************************************************************
         *                GEOMETRY OPTIMIZATION CYCLE   1            *
         *************************************************************
---------------------------------
CARTESIAN COORDINATES (ANGSTROEM)
---------------------------------
  C      0.000000    0.000000    0.000000
  F      1.255120    0.000000   -0.392300
  F     -0.627560    1.086966   -0.392300
  F     -0.627560   -1.086966   -0.392300

----------------------------
CARTESIAN COORDINATES (A.U.)
----------------------------
  NO LB      ZA    FRAG     MASS         X           Y           Z
   0 C     6.0000    0    12.011    0.000000    0.000000    0.000000
   1 F     9.0000    0    18.998    2.371832    0.000000   -0.741340
   2 F     9.0000    0    18.998   -1.185916    2.054067   -0.741340
   3 F     9.0000    0    18.998   -1.185916   -2.054067   -0.741340

--------------------------------
INTERNAL COORDINATES (ANGSTROEM)
--------------------------------
 C      0   0   0     0.000000000000     0.00000000     0.00000000
 F      1   0   0     1.315000000041     0.00000000     0.00000000
 F      1   2   0     1.314999999988   111.50000000     0.00000000
 F      1   2   3     1.314999999988   111.50000000   125.34756972

---------------------------
INTERNAL COORDINATES (A.U.)
---------------------------
 C      0   0   0     0.000000000000     0.00000000     0.00000000
 F      1   0   0     2.484989866184     0.00000000     0.00000000
 F      1   2   0     2.484989866083   111.50000000     0.00000000
 F      1   2   3     2.484989866083   111.50000000   125.34756972

---------------------
BASIS SET INFORMATION
---------------------
There are 2 groups of distinct atoms

 Group   1 Type C   : 12s6p3d1f contracted to 6s3p3d1f pattern {621111/411/111/1}
 Group   2 Type F   : 12s7p3d1f contracted to 6s4p3d1f pattern {621111/4111/111/1}

Atom   0C    basis set group =>   1
Atom   1F    basis set group =>   2
Atom   2F    basis set group =>   2
Atom   3F    basis set group =>   2
---------------------------------
AUXILIARY/J BASIS SET INFORMATION
---------------------------------
There are 2 groups of distinct atoms

 Group   1 Type C   : 12s5p4d2f1g contracted to 6s4p3d1f1g pattern {711111/2111/211/2/1}
 Group   2 Type F   : 12s5p4d2f1g contracted to 6s4p3d1f1g pattern {711111/2111/211/2/1}

Atom   0C    basis set group =>   1
Atom   1F    basis set group =>   2
Atom   2F    basis set group =>   2
Atom   3F    basis set group =>   2


           ************************************************************
           *        Program running with 18 parallel MPI-processes    *
           *              working on a common directory               *
           ************************************************************
------------------------------------------------------------------------------
                           ORCA GTO INTEGRAL CALCULATION
                           -- RI-GTO INTEGRALS CHOSEN --
------------------------------------------------------------------------------
------------------------------------------------------------------------------
                   ___                                                        
                  /   \      - P O W E R E D   B Y -                         
                 /     \                                                     
                 |  |  |   _    _      __       _____    __    __             
                 |  |  |  | |  | |    /  \     |  _  \  |  |  /  |          
                  \  \/   | |  | |   /    \    | | | |  |  | /  /          
                 / \  \   | |__| |  /  /\  \   | |_| |  |  |/  /          
                |  |  |   |  __  | /  /__\  \  |    /   |      \           
                |  |  |   | |  | | |   __   |  |    \   |  |\   \          
                \     /   | |  | | |  |  |  |  | |\  \  |  | \   \       
                 \___/    |_|  |_| |__|  |__|  |_| \__\ |__|  \__/        
                                                                              
                      - O R C A' S   B I G   F R I E N D -                    
                                      &                                       
                       - I N T E G R A L  F E E D E R -                       
                                                                              
 v1 FN, 2020, v2 2021                                                         
------------------------------------------------------------------------------


Reading SHARK input file /beegfs/scratch/ispackman/PFAS_EPR_calcs/benchmark/JChemEd_CF3_radical/CF3_radical_111.5_degrees_IN-PROGRESS/CF3_radical_111.5_degrees.SHARKINP.tmp ... ok
----------------------
SHARK INTEGRAL PACKAGE
----------------------

Number of atoms                             ...      4
Number of basis functions                   ...    157
Number of shells                            ...     55
Maximum angular momentum                    ...      3
Integral batch strategy                     ... SHARK/LIBINT Hybrid
RI-J (if used) integral strategy            ... SPLIT-RIJ (Revised 2003 algorithm where possible)
Printlevel                                  ...      1
Contraction scheme used                     ... SEGMENTED contraction
Coulomb Range Separation                    ... NOT USED
Exchange Range Separation                   ... Long Range
   Mu parameter                             ...  0.250000
   Scaling (regular/separated)              ...  0.195728  0.804272
Finite Nucleus Model                        ... NOT USED
Auxiliary Coulomb fitting basis             ... AVAILABLE
   # of basis functions in Aux-J            ...    196
   # of shells in Aux-J                     ...     60
   Maximum angular momentum in Aux-J        ...      4
Auxiliary J/K fitting basis                 ... NOT available
Auxiliary Correlation fitting basis         ... NOT available
Auxiliary 'external' fitting basis          ... NOT available
Integral threshold                          ...     2.500000e-11
Primitive cut-off                           ...     2.500000e-12
Primitive pair pre-selection threshold      ...     2.500000e-12

Calculating pre-screening integrals         ... done (  0.0 sec) Dimension = 55
Organizing shell pair data                  ... done (  0.0 sec)
Shell pair information
Total number of shell pairs                 ...      1540
Shell pairs after pre-screening             ...      1504
Total number of primitive shell pairs       ...      4274
Primitive shell pairs kept                  ...      3533
          la=0 lb=0:    282 shell pairs
          la=1 lb=0:    354 shell pairs
          la=1 lb=1:    120 shell pairs
          la=2 lb=0:    276 shell pairs
          la=2 lb=1:    180 shell pairs
          la=2 lb=2:     78 shell pairs
          la=3 lb=0:     96 shell pairs
          la=3 lb=1:     60 shell pairs
          la=3 lb=2:     48 shell pairs
          la=3 lb=3:     10 shell pairs

Calculating one electron integrals          ... done (  0.0 sec)
Calculating RI/J V-Matrix + Cholesky decomp.... done (  0.9 sec)
Calculating Nuclear repulsion               ... done (  0.0 sec) ENN=    124.342351396292 Eh

SHARK setup successfully completed in   7.0 seconds

Maximum memory used throughout the entire GTOINT-calculation: 15.2 MB


           ************************************************************
           *        Program running with 18 parallel MPI-processes    *
           *              working on a common directory               *
           ************************************************************
-------------------------------------------------------------------------------
                                 ORCA SCF
-------------------------------------------------------------------------------

------------
SCF SETTINGS
------------
Hamiltonian:
 Density Functional     Method          .... DFT(GTOs)
 Exchange Functional    Exchange        .... WB97X-D3
 Correlation Functional Correlation     .... WB97X-D3
 Gradients option       PostSCFGGA      .... off
 Hybrid DFT is turned on
   Fraction HF Exchange ScalHFX         ....  0.195728
   Scaling of DF-GGA-X  ScalDFX         ....  0.000000
   Scaling of DF-GGA-C  ScalDFC         ....  1.000000
   Scaling of DF-LDA-C  ScalLDAC        ....  1.000000
   Perturbative correction              ....  0.000000
   Density functional embedding theory  .... OFF
 Long-range corrected/Screened/Range-Separated Hybrid DFT is turned on
   Amount of maximum screened exact exchange              ....  0.804272
   Range separation parameter mu (erf(mu*r12)/r12)        ....  0.250000
 RI-approximation to the Coulomb term is turned on
   Number of AuxJ basis functions       .... 196
   RIJ-COSX (HFX calculated with COS-X)).... on


General Settings:
 Integral files         IntName         .... /beegfs/scratch/ispackman/PFAS_EPR_calcs/benchmark/JChemEd_CF3_radical/CF3_radical_111.5_degrees_IN-PROGRESS/CF3_radical_111.5_degrees
 Hartree-Fock type      HFTyp           .... UHF
 Total Charge           Charge          ....    0
 Multiplicity           Mult            ....    2
 Number of Electrons    NEL             ....   33
 Basis Dimension        Dim             ....  157
 Nuclear Repulsion      ENuc            ....    124.3423513963 Eh

Convergence Acceleration:
 DIIS                   CNVDIIS         .... on
   Start iteration      DIISMaxIt       ....    12
   Startup error        DIISStart       ....  0.200000
   # of expansion vecs  DIISMaxEq       ....     5
   Bias factor          DIISBfac        ....   1.050
   Max. coefficient     DIISMaxC        ....  10.000
 Trust-Rad. Augm. Hess. CNVTRAH         .... auto
   Auto Start mean grad. ratio tolernc. ....  1.125000
   Auto Start start iteration           ....    20
   Auto Start num. interpolation iter.  ....    10
   Max. Number of Micro iterations      ....    16
   Max. Number of Macro iterations      .... Maxiter - #DIIS iter
   Number of Davidson start vectors     ....     2
   Converg. threshold I  (grad. norm)   ....   1.000e-05
   Converg. threshold II (energy diff.) ....   1.000e-08
   Grad. Scal. Fac. for Micro threshold ....   0.100
   Minimum threshold for Micro iter.    ....   0.010
   NR start threshold (gradient norm)   ....   0.001
   Initial trust radius                 ....   0.400
   Minimum AH scaling param. (alpha)    ....   1.000
   Maximum AH scaling param. (alpha)    .... 1000.000
   Orbital update algorithm             .... Taylor
   White noise on init. David. guess    .... on
   Maximum white noise                  ....   0.010
   Quad. conv. algorithm                .... NR
 SOSCF                  CNVSOSCF        .... off
 Level Shifting         CNVShift        .... on
   Level shift para.    LevelShift      ....    0.2500
   Turn off err/grad.   ShiftErr        ....    0.0010
 Zerner damping         CNVZerner       .... off
 Static damping         CNVDamp         .... on
   Fraction old density DampFac         ....    0.7000
   Max. Damping (<1)    DampMax         ....    0.9800
   Min. Damping (>=0)   DampMin         ....    0.0000
   Turn off err/grad.   DampErr         ....    0.1000
 Fernandez-Rico         CNVRico         .... off

SCF Procedure:
 Maximum # iterations   MaxIter         ....   125
 SCF integral mode      SCFMode         .... Direct
   Integral package                     .... SHARK and LIBINT hybrid scheme
 Reset frequency        DirectResetFreq ....    20
 Integral Threshold     Thresh          ....  2.500e-11 Eh
 Primitive CutOff       TCut            ....  2.500e-12 Eh

Convergence Tolerance:
 Convergence Check Mode ConvCheckMode   .... Total+1el-Energy
 Convergence forced     ConvForced      .... 0
 Energy Change          TolE            ....  1.000e-08 Eh
 1-El. energy change                    ....  1.000e-05 Eh
 DIIS Error             TolErr          ....  5.000e-07


Diagonalization of the overlap matrix:
Smallest eigenvalue                        ... 3.084e-04
Time for diagonalization                   ...    0.008 sec
Threshold for overlap eigenvalues          ... 1.000e-08
Number of eigenvalues below threshold      ... 0
Time for construction of square roots      ...    0.017 sec
Total time needed                          ...    0.026 sec

Time for model grid setup =    0.085 sec

------------------------------
INITIAL GUESS: MODEL POTENTIAL
------------------------------
Loading Hartree-Fock densities                     ... done
Calculating cut-offs                               ... done
Initializing the effective Hamiltonian             ... done
Setting up the integral package (SHARK)            ... done
Starting the Coulomb interaction                   ... done (   0.3 sec)
Reading the grid                                   ... done
Mapping shells                                     ... done
Starting the XC term evaluation                    ... done (   0.0 sec)
  promolecular density results
     # of electrons  =     32.999684199
     EX              =    -35.095921796
     EC              =     -1.144758071
     EX+EC           =    -36.240679866
Transforming the Hamiltonian                       ... done (   0.0 sec)
Diagonalizing the Hamiltonian                      ... done (   0.0 sec)
Back transforming the eigenvectors                 ... done (   0.0 sec)
Now organizing SCF variables                       ... done
                      ------------------
                      INITIAL GUESS DONE (   0.4 sec)
                      ------------------
-------------------
DFT GRID GENERATION
-------------------

General Integration Accuracy     IntAcc      ... 4.388
Radial Grid Type                 RadialGrid  ... OptM3 with GC (2021)
Angular Grid (max. ang.)         AngularGrid ... 4 (Lebedev-302)
Angular grid pruning method      GridPruning ... 4 (adaptive)
Weight generation scheme         WeightScheme... Becke
Basis function cutoff            BFCut       ... 1.0000e-11
Integration weight cutoff        WCut        ... 1.0000e-14
Angular grids for H and He will be reduced by one unit
Partially contracted basis set               ... off
Rotationally invariant grid construction     ... off

Total number of grid points                  ...    25769
Total number of batches                      ...      405
Average number of points per batch           ...       63
Average number of grid points per atom       ...     6442
Time for grid setup =    0.146 sec

--------------------
COSX GRID GENERATION
--------------------

GRIDX 1
-------
General Integration Accuracy     IntAcc      ... 3.816
Radial Grid Type                 RadialGrid  ... OptM3 with GC (2021)
Angular Grid (max. ang.)         AngularGrid ... 1 (Lebedev-50)
Angular grid pruning method      GridPruning ... 4 (adaptive)
Weight generation scheme         WeightScheme... Becke
Basis function cutoff            BFCut       ... 1.0000e-11
Integration weight cutoff        WCut        ... 1.0000e-14
Angular grids for H and He will be reduced by one unit
Partially contracted basis set               ... on
Rotationally invariant grid construction     ... off

Total number of grid points                  ...     3269
Total number of batches                      ...       52
Average number of points per batch           ...       62
Average number of grid points per atom       ...      817
UseSFitting                                  ... on

GRIDX 2
-------
General Integration Accuracy     IntAcc      ... 4.020
Radial Grid Type                 RadialGrid  ... OptM3 with GC (2021)
Angular Grid (max. ang.)         AngularGrid ... 2 (Lebedev-110)
Angular grid pruning method      GridPruning ... 4 (adaptive)
Weight generation scheme         WeightScheme... Becke
Basis function cutoff            BFCut       ... 1.0000e-11
Integration weight cutoff        WCut        ... 1.0000e-14
Angular grids for H and He will be reduced by one unit
Partially contracted basis set               ... on
Rotationally invariant grid construction     ... off

Total number of grid points                  ...     9138
Total number of batches                      ...      145
Average number of points per batch           ...       63
Average number of grid points per atom       ...     2284
UseSFitting                                  ... on

GRIDX 3
-------
General Integration Accuracy     IntAcc      ... 4.338
Radial Grid Type                 RadialGrid  ... OptM3 with GC (2021)
Angular Grid (max. ang.)         AngularGrid ... 3 (Lebedev-194)
Angular grid pruning method      GridPruning ... 4 (adaptive)
Weight generation scheme         WeightScheme... Becke
Basis function cutoff            BFCut       ... 1.0000e-11
Integration weight cutoff        WCut        ... 1.0000e-14
Angular grids for H and He will be reduced by one unit
Partially contracted basis set               ... on
Rotationally invariant grid construction     ... off

Total number of grid points                  ...    19695
Total number of batches                      ...      311
Average number of points per batch           ...       63
Average number of grid points per atom       ...     4924
UseSFitting                                  ... on

Time for X-Grid setup             =    0.333 sec

--------------
SCF ITERATIONS
--------------
ITER       Energy         Delta-E        Max-DP      RMS-DP      [F,P]     Damp
               ***  Starting incremental Fock matrix formation  ***
  0   -337.5811966518   0.000000000000 0.01467899  0.00035900  0.0623388 0.7000
  1   -337.6029464047  -0.021749752938 0.00932851  0.00024376  0.0303037 0.7000
                               ***Turning on DIIS***
  2   -337.6123421734  -0.009395768706 0.01884964  0.00048018  0.0158460 0.0000
  3   -337.6296703880  -0.017328214613 0.00618170  0.00014116  0.0145429 0.0000
  4   -337.6322492404  -0.002578852360 0.00501071  0.00009770  0.0040818 0.0000
  5   -337.6325208120  -0.000271571582 0.00403359  0.00006493  0.0025798 0.0000
  6   -337.6326101439  -0.000089331886 0.00287936  0.00004369  0.0012019 0.0000
  7   -337.6326354862  -0.000025342310 0.00286850  0.00003832  0.0005468 0.0000
               *** Restarting incremental Fock matrix formation ***
                                   *** Resetting DIIS ***
  8   -337.6326464275  -0.000010941375 0.00072679  0.00000888  0.0000622 0.0000
  9   -337.6326465528  -0.000000125255 0.00009442  0.00000147  0.0000383 0.0000
 10   -337.6326465756  -0.000000022785 0.00005301  0.00000074  0.0000163 0.0000
 11   -337.6326465844  -0.000000008804 0.00001576  0.00000030  0.0000071 0.0000
 12   -337.6326465827   0.000000001705 0.00001430  0.00000017  0.0000021 0.0000
                 **** Energy Check signals convergence ****

               *****************************************************
               *                     SUCCESS                       *
               *           SCF CONVERGED AFTER  13 CYCLES          *
               *****************************************************

Old exchange energy                            =    -10.537254400 Eh
New exchange energy                            =    -10.537255481 Eh
Exchange energy change after final integration =     -0.000001081 Eh
Total energy after final integration           =   -337.632647663 Eh
Final COS-X integration done in                =     0.380 sec

----------------
TOTAL SCF ENERGY
----------------

Total Energy       :         -337.63264766 Eh           -9187.45142 eV

Components:
Nuclear Repulsion  :          124.34235140 Eh            3383.52740 eV
Electronic Energy  :         -461.97499906 Eh          -12570.97882 eV
One Electron Energy:         -715.46683169 Eh          -19468.84227 eV
Two Electron Energy:          253.49183264 Eh            6897.86345 eV
Max COSX asymmetry :            0.00000057 Eh               0.00002 eV

Virial components:
Potential Energy   :         -674.23085517 Eh          -18346.75430 eV
Kinetic Energy     :          336.59820751 Eh            9159.30288 eV
Virial Ratio       :            2.00307322


DFT components:
N(Alpha)           :       16.999867222551 electrons
N(Beta)            :       15.999909632536 electrons
N(Total)           :       32.999776855087 electrons
E(XC)              :      -26.192941098366 Eh       
DFET-embed. en.    :        0.000000000000 Eh       

---------------
SCF CONVERGENCE
---------------

  Last Energy change         ...    1.3126e-09  Tolerance :   1.0000e-08
  Last MAX-Density change    ...    0.0000e+00  Tolerance :   1.0000e-07
  Last RMS-Density change    ...    0.0000e+00  Tolerance :   5.0000e-09
  Last DIIS Error            ...    5.5243e-07  Tolerance :   5.0000e-07

             **** THE GBW FILE WAS UPDATED (/beegfs/scratch/ispackman/PFAS_EPR_calcs/benchmark/JChemEd_CF3_radical/CF3_radical_111.5_degrees_IN-PROGRESS/CF3_radical_111.5_degrees.gbw) ****
             **** DENSITY /beegfs/scratch/ispackman/PFAS_EPR_calcs/benchmark/JChemEd_CF3_radical/CF3_radical_111.5_degrees_IN-PROGRESS/CF3_radical_111.5_degrees.scfp WAS UPDATED ****
             **** ENERGY FILE WAS UPDATED (/beegfs/scratch/ispackman/PFAS_EPR_calcs/benchmark/JChemEd_CF3_radical/CF3_radical_111.5_degrees_IN-PROGRESS/CF3_radical_111.5_degrees.en.tmp) ****
----------------------
UHF SPIN CONTAMINATION
----------------------

Warning: in a DFT calculation there is little theoretical justification to 
         calculate <S**2> as in Hartree-Fock theory. We will do it anyways
         but you should keep in mind that the values have only limited relevance

Expectation value of <S**2>     :     0.751967
Ideal value S*(S+1) for S=0.5   :     0.750000
Deviation                       :     0.001967

             **** THE GBW FILE WAS UPDATED (/beegfs/scratch/ispackman/PFAS_EPR_calcs/benchmark/JChemEd_CF3_radical/CF3_radical_111.5_degrees_IN-PROGRESS/CF3_radical_111.5_degrees.gbw) ****
             **** DENSITY /beegfs/scratch/ispackman/PFAS_EPR_calcs/benchmark/JChemEd_CF3_radical/CF3_radical_111.5_degrees_IN-PROGRESS/CF3_radical_111.5_degrees.scfp WAS UPDATED ****
----------------
ORBITAL ENERGIES
----------------
                 SPIN UP ORBITALS
  NO   OCC          E(Eh)            E(eV) 
   0   1.0000     -24.853596      -676.3007 
   1   1.0000     -24.853591      -676.3006 
   2   1.0000     -24.853584      -676.3004 
   3   1.0000     -10.539962      -286.8069 
   4   1.0000      -1.470609       -40.0173 
   5   1.0000      -1.383829       -37.6559 
   6   1.0000      -1.383829       -37.6559 
   7   1.0000      -0.838960       -22.8293 
   8   1.0000      -0.733933       -19.9713 
   9   1.0000      -0.733930       -19.9713 
  10   1.0000      -0.701350       -19.0847 
  11   1.0000      -0.607352       -16.5269 
  12   1.0000      -0.607352       -16.5269 
  13   1.0000      -0.573969       -15.6185 
  14   1.0000      -0.573964       -15.6184 
  15   1.0000      -0.547827       -14.9071 
  16   1.0000      -0.371912       -10.1202 
  17   0.0000       0.069785         1.8990 
  18   0.0000       0.103771         2.8238 
  19   0.0000       0.103771         2.8238 
  20   0.0000       0.114565         3.1175 
  21   0.0000       0.158079         4.3016 
  22   0.0000       0.158080         4.3016 
  23   0.0000       0.173802         4.7294 
  24   0.0000       0.173802         4.7294 
  25   0.0000       0.180124         4.9014 
  26   0.0000       0.238401         6.4872 
  27   0.0000       0.247401         6.7321 
  28   0.0000       0.247405         6.7322 
  29   0.0000       0.254558         6.9269 
  30   0.0000       0.321188         8.7400 
  31   0.0000       0.364811         9.9270 
  32   0.0000       0.364815         9.9271 
  33   0.0000       0.367743        10.0068 
  34   0.0000       0.386298        10.5117 
  35   0.0000       0.386302        10.5118 
  36   0.0000       0.405211        11.0264 
  37   0.0000       0.422514        11.4972 
  38   0.0000       0.422515        11.4972 
  39   0.0000       0.486101        13.2275 
  40   0.0000       0.487679        13.2704 
  41   0.0000       0.487682        13.2705 
  42   0.0000       0.588333        16.0093 
  43   0.0000       0.655927        17.8487 
  44   0.0000       0.655928        17.8487 
  45   0.0000       0.675205        18.3733 
  46   0.0000       0.675206        18.3733 
  47   0.0000       0.696467        18.9518 
  48   0.0000       0.696470        18.9519 
  49   0.0000       0.714638        19.4463 
  50   0.0000       0.739514        20.1232 
  51   0.0000       0.748194        20.3594 
  52   0.0000       0.784930        21.3590 
  53   0.0000       0.784933        21.3591 
  54   0.0000       0.869884        23.6708 
  55   0.0000       0.876381        23.8475 
  56   0.0000       0.876383        23.8476 
  57   0.0000       0.952452        25.9175 
  58   0.0000       0.980079        26.6693 
  59   0.0000       0.980082        26.6694 
  60   0.0000       1.061662        28.8893 
  61   0.0000       1.061666        28.8894 
  62   0.0000       1.082084        29.4450 
  63   0.0000       1.161302        31.6006 
  64   0.0000       1.161748        31.6128 
  65   0.0000       1.161751        31.6128 
  66   0.0000       1.240892        33.7664 
  67   0.0000       1.257749        34.2251 
  68   0.0000       1.257760        34.2254 
  69   0.0000       1.292373        35.1672 
  70   0.0000       1.326115        36.0854 
  71   0.0000       1.326121        36.0856 
  72   0.0000       1.460923        39.7537 
  73   0.0000       1.460927        39.7538 
  74   0.0000       1.699137        46.2359 
  75   0.0000       2.115706        57.5713 
  76   0.0000       2.132395        58.0254 
  77   0.0000       2.132406        58.0257 
  78   0.0000       2.185007        59.4571 
  79   0.0000       2.213994        60.2458 
  80   0.0000       2.213994        60.2458 
  81   0.0000       2.276457        61.9455 
  82   0.0000       2.306543        62.7642 
  83   0.0000       2.342580        63.7448 
  84   0.0000       2.342590        63.7451 
  85   0.0000       2.518460        68.5308 
  86   0.0000       2.518481        68.5313 
  87   0.0000       2.609737        71.0146 
  88   0.0000       2.661672        72.4278 
  89   0.0000       2.661689        72.4282 
  90   0.0000       2.807311        76.3908 
  91   0.0000       2.959921        80.5435 
  92   0.0000       2.959930        80.5438 
  93   0.0000       3.144009        85.5528 
  94   0.0000       3.213154        87.4344 
  95   0.0000       3.213208        87.4358 
  96   0.0000       3.233121        87.9777 
  97   0.0000       3.326119        90.5083 
  98   0.0000       3.326148        90.5091 
  99   0.0000       3.346138        91.0530 
 100   0.0000       3.346140        91.0531 
 101   0.0000       3.401083        92.5482 
 102   0.0000       3.571251        97.1787 
 103   0.0000       3.571260        97.1789 
 104   0.0000       3.741236       101.8042 
 105   0.0000       3.876101       105.4741 
 106   0.0000       3.876176       105.4761 
 107   0.0000       3.878943       105.5514 
 108   0.0000       4.044849       110.0659 
 109   0.0000       4.044890       110.0671 
 110   0.0000       4.081769       111.0706 
 111   0.0000       4.133728       112.4845 
 112   0.0000       4.133744       112.4849 
 113   0.0000       4.214864       114.6923 
 114   0.0000       5.222098       142.1005 
 115   0.0000       5.407641       147.1494 
 116   0.0000       5.407644       147.1495 
 117   0.0000       6.898111       187.7071 
 118   0.0000       6.907364       187.9589 
 119   0.0000       6.907381       187.9594 
 120   0.0000       6.912009       188.0853 
 121   0.0000       6.912081       188.0873 
 122   0.0000       6.913526       188.1266 
 123   0.0000       6.920764       188.3236 
 124   0.0000       6.923822       188.4068 
 125   0.0000       6.923839       188.4072 
 126   0.0000       7.073102       192.4689 
 127   0.0000       7.084491       192.7788 
 128   0.0000       7.084517       192.7795 
 129   0.0000       7.195923       195.8110 
 130   0.0000       7.195966       195.8122 
 131   0.0000       7.248088       197.2305 
 132   0.0000       7.433925       202.2874 
 133   0.0000       7.433994       202.2893 
 134   0.0000       7.548981       205.4182 
 135   0.0000       7.694489       209.3777 
 136   0.0000       7.694521       209.3786 
 137   0.0000       7.780713       211.7240 
 138   0.0000       8.500145       231.3007 
 139   0.0000       8.501581       231.3398 
 140   0.0000       8.501675       231.3423 
 141   0.0000       8.572669       233.2742 
 142   0.0000       8.572677       233.2744 
 143   0.0000       8.606044       234.1823 
 144   0.0000       8.838332       240.5033 
 145   0.0000       8.838348       240.5037 
 146   0.0000       8.872373       241.4295 
 147   0.0000       8.874546       241.4887 
 148   0.0000       9.068728       246.7726 
 149   0.0000       9.068762       246.7736 
 150   0.0000       9.226930       251.0775 
 151   0.0000       9.382159       255.3015 
 152   0.0000       9.382171       255.3018 
 153   0.0000      22.854142       621.8928 
 154   0.0000      57.194362      1556.3377 
 155   0.0000      57.271391      1558.4338 
 156   0.0000      57.271407      1558.4342 

                 SPIN DOWN ORBITALS
  NO   OCC          E(Eh)            E(eV) 
   0   1.0000     -24.850595      -676.2191 
   1   1.0000     -24.850590      -676.2189 
   2   1.0000     -24.850575      -676.2185 
   3   1.0000     -10.527132      -286.4578 
   4   1.0000      -1.460605       -39.7451 
   5   1.0000      -1.375275       -37.4231 
   6   1.0000      -1.375275       -37.4231 
   7   1.0000      -0.820717       -22.3328 
   8   1.0000      -0.723728       -19.6936 
   9   1.0000      -0.723723       -19.6935 
  10   1.0000      -0.663319       -18.0498 
  11   1.0000      -0.596523       -16.2322 
  12   1.0000      -0.596522       -16.2322 
  13   1.0000      -0.564478       -15.3602 
  14   1.0000      -0.564474       -15.3601 
  15   1.0000      -0.544562       -14.8183 
  16   0.0000      -0.019685        -0.5357 
  17   0.0000       0.081772         2.2251 
  18   0.0000       0.107120         2.9149 
  19   0.0000       0.107120         2.9149 
  20   0.0000       0.130990         3.5644 
  21   0.0000       0.161221         4.3871 
  22   0.0000       0.161221         4.3871 
  23   0.0000       0.180920         4.9231 
  24   0.0000       0.180921         4.9231 
  25   0.0000       0.193414         5.2631 
  26   0.0000       0.240467         6.5434 
  27   0.0000       0.263389         7.1672 
  28   0.0000       0.265590         7.2271 
  29   0.0000       0.265594         7.2272 
  30   0.0000       0.330199         8.9852 
  31   0.0000       0.378726        10.3057 
  32   0.0000       0.383388        10.4325 
  33   0.0000       0.383395        10.4327 
  34   0.0000       0.391510        10.6535 
  35   0.0000       0.391517        10.6537 
  36   0.0000       0.417766        11.3680 
  37   0.0000       0.424824        11.5601 
  38   0.0000       0.424826        11.5601 
  39   0.0000       0.487672        13.2702 
  40   0.0000       0.487675        13.2703 
  41   0.0000       0.491680        13.3793 
  42   0.0000       0.594618        16.1804 
  43   0.0000       0.658221        17.9111 
  44   0.0000       0.658221        17.9111 
  45   0.0000       0.677205        18.4277 
  46   0.0000       0.677210        18.4278 
  47   0.0000       0.701397        19.0860 
  48   0.0000       0.701398        19.0860 
  49   0.0000       0.715223        19.4622 
  50   0.0000       0.747476        20.3399 
  51   0.0000       0.751010        20.4360 
  52   0.0000       0.786708        21.4074 
  53   0.0000       0.786709        21.4075 
  54   0.0000       0.871479        23.7141 
  55   0.0000       0.879704        23.9380 
  56   0.0000       0.879706        23.9380 
  57   0.0000       0.965973        26.2855 
  58   0.0000       0.989133        26.9157 
  59   0.0000       0.989138        26.9158 
  60   0.0000       1.064784        28.9742 
  61   0.0000       1.064787        28.9743 
  62   0.0000       1.085100        29.5271 
  63   0.0000       1.163208        31.6525 
  64   0.0000       1.163213        31.6526 
  65   0.0000       1.170664        31.8554 
  66   0.0000       1.249963        34.0132 
  67   0.0000       1.268400        34.5149 
  68   0.0000       1.268404        34.5150 
  69   0.0000       1.292570        35.1726 
  70   0.0000       1.332127        36.2490 
  71   0.0000       1.332134        36.2492 
  72   0.0000       1.468111        39.9493 
  73   0.0000       1.468122        39.9496 
  74   0.0000       1.752921        47.6994 
  75   0.0000       2.123609        57.7863 
  76   0.0000       2.139547        58.2200 
  77   0.0000       2.139594        58.2213 
  78   0.0000       2.187337        59.5205 
  79   0.0000       2.222204        60.4692 
  80   0.0000       2.222213        60.4695 
  81   0.0000       2.295502        62.4638 
  82   0.0000       2.308301        62.8121 
  83   0.0000       2.349667        63.9377 
  84   0.0000       2.349678        63.9380 
  85   0.0000       2.530101        68.8476 
  86   0.0000       2.530124        68.8482 
  87   0.0000       2.614202        71.1361 
  88   0.0000       2.677035        72.8458 
  89   0.0000       2.677049        72.8462 
  90   0.0000       2.820290        76.7440 
  91   0.0000       2.964027        80.6553 
  92   0.0000       2.964040        80.6556 
  93   0.0000       3.191989        86.8584 
  94   0.0000       3.229818        87.8878 
  95   0.0000       3.229851        87.8887 
  96   0.0000       3.251120        88.4675 
  97   0.0000       3.343164        90.9721 
  98   0.0000       3.343209        90.9733 
  99   0.0000       3.386595        92.1539 
 100   0.0000       3.386608        92.1543 
 101   0.0000       3.405999        92.6819 
 102   0.0000       3.606238        98.1307 
 103   0.0000       3.606286        98.1320 
 104   0.0000       3.770846       102.6099 
 105   0.0000       3.886013       105.7438 
 106   0.0000       3.886111       105.7465 
 107   0.0000       3.888058       105.7995 
 108   0.0000       4.062790       110.5541 
 109   0.0000       4.062793       110.5542 
 110   0.0000       4.092994       111.3760 
 111   0.0000       4.138475       112.6136 
 112   0.0000       4.138487       112.6139 
 113   0.0000       4.225865       114.9916 
 114   0.0000       5.235350       142.4611 
 115   0.0000       5.419152       147.4626 
 116   0.0000       5.419248       147.4652 
 117   0.0000       6.899971       187.7578 
 118   0.0000       6.911696       188.0768 
 119   0.0000       6.911717       188.0774 
 120   0.0000       6.917755       188.2417 
 121   0.0000       6.917818       188.2434 
 122   0.0000       6.919506       188.2893 
 123   0.0000       6.926152       188.4702 
 124   0.0000       6.927575       188.5089 
 125   0.0000       6.927589       188.5093 
 126   0.0000       7.076129       192.5513 
 127   0.0000       7.090785       192.9501 
 128   0.0000       7.090809       192.9507 
 129   0.0000       7.200128       195.9254 
 130   0.0000       7.200177       195.9268 
 131   0.0000       7.256062       197.4475 
 132   0.0000       7.443077       202.5364 
 133   0.0000       7.443137       202.5380 
 134   0.0000       7.558645       205.6812 
 135   0.0000       7.700752       209.5481 
 136   0.0000       7.700831       209.5503 
 137   0.0000       7.789205       211.9550 
 138   0.0000       8.506042       231.4612 
 139   0.0000       8.510562       231.5842 
 140   0.0000       8.510654       231.5867 
 141   0.0000       8.582526       233.5424 
 142   0.0000       8.582533       233.5426 
 143   0.0000       8.613314       234.3802 
 144   0.0000       8.847118       240.7423 
 145   0.0000       8.847130       240.7426 
 146   0.0000       8.879661       241.6279 
 147   0.0000       8.885900       241.7976 
 148   0.0000       9.073317       246.8975 
 149   0.0000       9.073344       246.8982 
 150   0.0000       9.233757       251.2633 
 151   0.0000       9.388656       255.4783 
 152   0.0000       9.388673       255.4788 
 153   0.0000      22.876891       622.5119 
 154   0.0000      57.197358      1556.4192 
 155   0.0000      57.274361      1558.5146 
 156   0.0000      57.274377      1558.5150 

                    ********************************
                    * MULLIKEN POPULATION ANALYSIS *
                    ********************************

--------------------------------------------
MULLIKEN ATOMIC CHARGES AND SPIN POPULATIONS
--------------------------------------------
   0 C :    0.531624    0.815390
   1 F :   -0.177167    0.061541
   2 F :   -0.177229    0.061535
   3 F :   -0.177227    0.061534
Sum of atomic charges         :    0.0000000
Sum of atomic spin populations:    1.0000000

-----------------------------------------------------
MULLIKEN REDUCED ORBITAL CHARGES AND SPIN POPULATIONS
-----------------------------------------------------
CHARGE
  0 C s       :     3.177047  s :     3.177047
      pz      :     0.905786  p :     1.944000
      px      :     0.519142
      py      :     0.519072
      dz2     :     0.047947  d :     0.307334
      dxz     :     0.050895
      dyz     :     0.050889
      dx2y2   :     0.078805
      dxy     :     0.078798
      f0      :     0.002497  f :     0.039996
      f+1     :     0.004606
      f-1     :     0.004605
      f+2     :     0.005522
      f-2     :     0.005521
      f+3     :     0.005161
      f-3     :     0.012085
  1 F s       :     3.954939  s :     3.954939
      pz      :     1.830133  p :     5.210217
      px      :     1.462483
      py      :     1.917600
      dz2     :     0.000604  d :     0.011214
      dxz     :     0.006726
      dyz     :     0.000273
      dx2y2   :     0.005383
      dxy     :    -0.001772
      f0      :     0.000079  f :     0.000799
      f+1     :     0.000159
      f-1     :     0.000006
      f+2     :     0.000168
      f-2     :     0.000030
      f+3     :     0.000217
      f-3     :     0.000140
  2 F s       :     3.954978  s :     3.954978
      pz      :     1.830141  p :     5.210243
      px      :     1.803824
      py      :     1.576278
      dz2     :     0.000602  d :     0.011210
      dxz     :     0.001887
      dyz     :     0.005114
      dx2y2   :     0.000015
      dxy     :     0.003593
      f0      :     0.000079  f :     0.000799
      f+1     :     0.000044
      f-1     :     0.000120
      f+2     :     0.000065
      f-2     :     0.000134
      f+3     :     0.000217
      f-3     :     0.000140
  3 F s       :     3.954977  s :     3.954977
      pz      :     1.830141  p :     5.210242
      px      :     1.803823
      py      :     1.576278
      dz2     :     0.000602  d :     0.011210
      dxz     :     0.001887
      dyz     :     0.005113
      dx2y2   :     0.000015
      dxy     :     0.003593
      f0      :     0.000079  f :     0.000799
      f+1     :     0.000044
      f-1     :     0.000120
      f+2     :     0.000065
      f-2     :     0.000134
      f+3     :     0.000217
      f-3     :     0.000140

SPIN
  0 C s       :     0.249026  s :     0.249026
      pz      :     0.532244  p :     0.553218
      px      :     0.010476
      py      :     0.010499
      dz2     :     0.018282  d :     0.013919
      dxz     :    -0.001591
      dyz     :    -0.001588
      dx2y2   :    -0.000596
      dxy     :    -0.000588
      f0      :    -0.000307  f :    -0.000773
      f+1     :    -0.000485
      f-1     :    -0.000486
      f+2     :    -0.000104
      f-2     :    -0.000101
      f+3     :     0.000644
      f-3     :     0.000066
  1 F s       :     0.003275  s :     0.003275
      pz      :     0.059866  p :     0.056341
      px      :    -0.002426
      py      :    -0.001100
      dz2     :     0.000227  d :     0.001885
      dxz     :     0.000954
      dyz     :     0.000001
      dx2y2   :     0.000716
      dxy     :    -0.000013
      f0      :    -0.000003  f :     0.000041
      f+1     :     0.000028
      f-1     :    -0.000001
      f+2     :     0.000006
      f-2     :     0.000002
      f+3     :     0.000008
      f-3     :     0.000001
  2 F s       :     0.003284  s :     0.003284
      pz      :     0.059886  p :     0.056330
      px      :    -0.001443
      py      :    -0.002113
      dz2     :     0.000226  d :     0.001881
      dxz     :     0.000238
      dyz     :     0.000715
      dx2y2   :     0.000169
      dxy     :     0.000532
      f0      :    -0.000003  f :     0.000041
      f+1     :     0.000006
      f-1     :     0.000021
      f+2     :     0.000003
      f-2     :     0.000005
      f+3     :     0.000008
      f-3     :     0.000001
  3 F s       :     0.003283  s :     0.003283
      pz      :     0.059886  p :     0.056330
      px      :    -0.001443
      py      :    -0.002113
      dz2     :     0.000226  d :     0.001881
      dxz     :     0.000238
      dyz     :     0.000715
      dx2y2   :     0.000169
      dxy     :     0.000532
      f0      :    -0.000003  f :     0.000041
      f+1     :     0.000006
      f-1     :     0.000021
      f+2     :     0.000003
      f-2     :     0.000005
      f+3     :     0.000008
      f-3     :     0.000001


                     *******************************
                     * LOEWDIN POPULATION ANALYSIS *
                     *******************************

-------------------------------------------
LOEWDIN ATOMIC CHARGES AND SPIN POPULATIONS
-------------------------------------------
   0 C :   -0.411331    0.614354
   1 F :    0.137121    0.128558
   2 F :    0.137105    0.128544
   3 F :    0.137105    0.128544

----------------------------------------------------
LOEWDIN REDUCED ORBITAL CHARGES AND SPIN POPULATIONS
----------------------------------------------------
CHARGE
  0 C s       :     2.678528  s :     2.678528
      pz      :     0.815917  p :     2.212148
      px      :     0.698116
      py      :     0.698114
      dz2     :     0.173702  d :     1.261295
      dxz     :     0.193435
      dyz     :     0.193432
      dx2y2   :     0.350363
      dxy     :     0.350364
      f0      :     0.015569  f :     0.259359
      f+1     :     0.023970
      f-1     :     0.023971
      f+2     :     0.039635
      f-2     :     0.039635
      f+3     :     0.048985
      f-3     :     0.067594
  1 F s       :     3.564165  s :     3.564165
      pz      :     1.742740  p :     5.096739
      px      :     1.569929
      py      :     1.784069
      dz2     :     0.028963  d :     0.200056
      dxz     :     0.062936
      dyz     :     0.004703
      dx2y2   :     0.044728
      dxy     :     0.058725
      f0      :     0.000187  f :     0.001919
      f+1     :     0.000403
      f-1     :     0.000016
      f+2     :     0.000452
      f-2     :     0.000062
      f+3     :     0.000434
      f-3     :     0.000364
  2 F s       :     3.564166  s :     3.564166
      pz      :     1.742733  p :     5.096756
      px      :     1.730537
      py      :     1.623486
      dz2     :     0.028963  d :     0.200055
      dxz     :     0.019262
      dyz     :     0.048379
      dx2y2   :     0.055225
      dxy     :     0.048227
      f0      :     0.000187  f :     0.001919
      f+1     :     0.000113
      f-1     :     0.000306
      f+2     :     0.000160
      f-2     :     0.000355
      f+3     :     0.000434
      f-3     :     0.000364
  3 F s       :     3.564166  s :     3.564166
      pz      :     1.742733  p :     5.096756
      px      :     1.730537
      py      :     1.623486
      dz2     :     0.028963  d :     0.200055
      dxz     :     0.019262
      dyz     :     0.048379
      dx2y2   :     0.055225
      dxy     :     0.048227
      f0      :     0.000187  f :     0.001919
      f+1     :     0.000113
      f-1     :     0.000306
      f+2     :     0.000160
      f-2     :     0.000355
      f+3     :     0.000434
      f-3     :     0.000364

SPIN
  0 C s       :     0.126832  s :     0.126832
      pz      :     0.420941  p :     0.432246
      px      :     0.005643
      py      :     0.005661
      dz2     :     0.056053  d :     0.047244
      dxz     :    -0.003786
      dyz     :    -0.003786
      dx2y2   :    -0.000618
      dxy     :    -0.000620
      f0      :    -0.000310  f :     0.008033
      f+1     :    -0.000259
      f-1     :    -0.000260
      f+2     :    -0.000204
      f-2     :    -0.000202
      f+3     :     0.009266
      f-3     :     0.000002
  1 F s       :     0.015182  s :     0.015182
      pz      :     0.071072  p :     0.076456
      px      :     0.006072
      py      :    -0.000688
      dz2     :     0.005126  d :     0.036497
      dxz     :     0.029949
      dyz     :    -0.000103
      dx2y2   :     0.001492
      dxy     :     0.000034
      f0      :     0.000039  f :     0.000424
      f+1     :     0.000200
      f-1     :     0.000000
      f+2     :     0.000166
      f-2     :     0.000001
      f+3     :     0.000014
      f-3     :     0.000004
  2 F s       :     0.015181  s :     0.015181
      pz      :     0.071086  p :     0.076444
      px      :     0.000994
      py      :     0.004364
      dz2     :     0.005126  d :     0.036495
      dxz     :     0.007409
      dyz     :     0.022434
      dx2y2   :     0.000398
      dxy     :     0.001128
      f0      :     0.000039  f :     0.000424
      f+1     :     0.000050
      f-1     :     0.000150
      f+2     :     0.000042
      f-2     :     0.000125
      f+3     :     0.000014
      f-3     :     0.000004
  3 F s       :     0.015180  s :     0.015180
      pz      :     0.071086  p :     0.076444
      px      :     0.000994
      py      :     0.004364
      dz2     :     0.005126  d :     0.036495
      dxz     :     0.007409
      dyz     :     0.022434
      dx2y2   :     0.000398
      dxy     :     0.001128
      f0      :     0.000039  f :     0.000424
      f+1     :     0.000050
      f-1     :     0.000150
      f+2     :     0.000042
      f-2     :     0.000125
      f+3     :     0.000014
      f-3     :     0.000004


                      *****************************
                      * MAYER POPULATION ANALYSIS *
                      *****************************

  NA   - Mulliken gross atomic population
  ZA   - Total nuclear charge
  QA   - Mulliken gross atomic charge
  VA   - Mayer's total valence
  BVA  - Mayer's bonded valence
  FA   - Mayer's free valence

  ATOM       NA         ZA         QA         VA         BVA        FA
  0 C      5.4684     6.0000     0.5316     3.8140     3.1536     0.6605
  1 F      9.1772     9.0000    -0.1772     1.0780     1.0742     0.0037
  2 F      9.1772     9.0000    -0.1772     1.0778     1.0741     0.0037
  3 F      9.1772     9.0000    -0.1772     1.0778     1.0741     0.0037

  Mayer bond orders larger than 0.100000
B(  0-C ,  1-F ) :   1.0513 B(  0-C ,  2-F ) :   1.0512 B(  0-C ,  3-F ) :   1.0512 


-------
TIMINGS
-------

Total SCF time: 0 days 0 hours 0 min 13 sec 

Total time                  ....      13.253 sec
Sum of individual times     ....      12.142 sec  ( 91.6%)

Fock matrix formation       ....      10.223 sec  ( 77.1%)
  Split-RI-J                ....       2.092 sec  ( 20.5% of F)
  Chain of spheres X        ....       3.054 sec  ( 29.9% of F)
  XC integration            ....       2.040 sec  ( 20.0% of F)
    Basis function eval.    ....       0.115 sec  (  5.7% of XC)
    Density eval.           ....       0.151 sec  (  7.4% of XC)
    XC-Functional eval.     ....       0.063 sec  (  3.1% of XC)
    XC-Potential eval.      ....       0.299 sec  ( 14.7% of XC)
Diagonalization             ....       0.393 sec  (  3.0%)
Density matrix formation    ....       0.014 sec  (  0.1%)
Population analysis         ....       0.113 sec  (  0.9%)
Initial guess               ....       0.359 sec  (  2.7%)
Orbital Transformation      ....       0.000 sec  (  0.0%)
Orbital Orthonormalization  ....       0.000 sec  (  0.0%)
DIIS solution               ....       0.476 sec  (  3.6%)
Grid generation             ....       0.564 sec  (  4.3%)

Maximum memory used throughout the entire SCF-calculation: 63.2 MB


-------------------------------------------------------------------------------
                          DFT DISPERSION CORRECTION                            
                                                                               
                              DFTD3 V3.1  Rev 1                                
                              USING zero damping                               
-------------------------------------------------------------------------------
The omegaB97X-D3 functional is recognized. Fit by Chai et al.
Active option DFTDOPT                   ...         3   

molecular C6(AA) [au] = 165.760281 


            DFT-D V3
 parameters
 s6 scaling factor         :     1.0000 
 rs6 scaling factor        :     1.2810 
 s8 scaling factor         :     1.0000 
 rs8 scaling factor        :     1.0940 
 Damping factor alpha6     :    14.0000 
 Damping factor alpha8     :    16.0000 
 ad hoc parameters k1-k3   :    16.0000     1.3333    -4.0000 

 Edisp/kcal,au: -0.052340708871  -0.000083410220 
 E6   /kcal   :  -0.006699306 
 E8   /kcal   :  -0.045641403 
 % E8         :  87.200582721 

-------------------------   ----------------
Dispersion correction           -0.000083410
-------------------------   ----------------


-------------------------   --------------------
FINAL SINGLE POINT ENERGY      -337.632731072852
-------------------------   --------------------



           ************************************************************
           *        Program running with 18 parallel MPI-processes    *
           *              working on a common directory               *
           ************************************************************
------------------------------------------------------------------------------
                         ORCA SCF GRADIENT CALCULATION
------------------------------------------------------------------------------

 ... reading COSX grid (gridx3)
Gradient of the Kohn-Sham DFT energy:
Kohn-Sham wavefunction type      ... UKS
Hartree-Fock exchange scaling    ...    0.196
Number of operators              ...    2
Number of atoms                  ...    4
Basis set dimensions             ...  157
Integral neglect threshold       ... 2.5e-11
Integral primitive cutoff        ... 2.5e-12
SHARK Integral package           ... ON

Nuc. rep. gradient       (SHARK) ... done (  0.0 sec)
HCore & Overlap gradient (SHARK) ... done (  0.0 sec)
RI-J gradient            (SHARK) ... done (  0.5 sec)
COSX-gradient                    ... done (  0.4 sec)
Exchange-correlation gradient    ... done
Dispersion correction            ... done

------------------
CARTESIAN GRADIENT
------------------

WARNING: THERE ARE 3 CONSTRAINED CARTESIAN COORDINATES
   1   C   :   -0.000117713   -0.000000048   -0.001343684
   2   F   :    0.001078714    0.000000208    0.000462446
   3   F   :   -0.000176712   -0.000022254    0.000146231
   4   F   :   -0.000176472    0.000022144    0.000146000

Difference to translation invariance:
           :    0.0006078175    0.0000000504   -0.0005890075

Difference to rotation invariance:
           :    0.0000005472   -0.0012881475    0.0000011161

Norm of the cartesian gradient     ...    0.0018173818
RMS gradient                       ...    0.0005246329
MAX gradient                       ...    0.0013436836

-------
TIMINGS
-------

Total SCF gradient time            ...        1.459 sec

One electron gradient       ....       0.014 sec  (  0.9%)
RI-J Coulomb gradient       ....       0.486 sec  ( 33.3%)
COSX gradient               ....       0.432 sec  ( 29.6%)
XC gradient                 ....       0.169 sec  ( 11.6%)

Maximum memory used throughout the entire SCFGRAD-calculation: 37.2 MB
------------------------------------------------------------------------------
                         ORCA GEOMETRY RELAXATION STEP
------------------------------------------------------------------------------

Reading the OPT-File                    .... done
Getting information on internals        .... done
Copying old internal coords+grads       .... done
Making the new internal coordinates     .... (new redundants).... done
Validating the new internal coordinates .... (new redundants).... done
Calculating the B-matrix                .... done
Calculating the G,G- and P matrices     .... done
Transforming gradient to internals      .... done
Projecting the internal gradient        .... done
Number of atoms                         ....   4
Number of internal coordinates          ....   7
Current Energy                          ....  -337.632731073 Eh
Current gradient norm                   ....     0.001817382 Eh/bohr
Maximum allowed component of the step   ....  0.300
Current trust radius                    ....  0.300
Evaluating the initial hessian          ....  (Almloef) done
Projecting the Hessian                  .... done
Forming the augmented Hessian           .... done
Diagonalizing the augmented Hessian     .... done
Last element of RFO vector              ....  0.999999384
Lowest eigenvalues of augmented Hessian:
 -0.000000844  0.684895726  0.684895726  0.684896570 1000.000000000
Length of the computed step             ....  0.001110103
The final length of the internal step   ....  0.001110103
Converting the step to cartesian space:
 Initial RMS(Int)=    0.0004195797
Transforming coordinates:
 Iter   0:  RMS(Cart)=    0.0002739973 RMS(Int)=    0.0004195777
 Iter   1:  RMS(Cart)=    0.0000000069 RMS(Int)=    0.0000000126
Imposing constraints:
 Iter   0:  RMS(Cart)=    0.0000000010 RMS(Int)=    0.0000000029
CONVERGED
done
Storing new coordinates                 .... done

                                .--------------------.
          ----------------------|Geometry convergence|-------------------------
          Item                value                   Tolerance       Converged
          ---------------------------------------------------------------------
          RMS gradient        0.0002873687            0.0001000000      NO
          MAX gradient        0.0007596436            0.0003000000      NO
          RMS step            0.0004195797            0.0020000000      YES
          MAX step            0.0011091363            0.0040000000      YES
          ........................................................
          Max(Bonds)      0.0006      Max(Angles)    0.00
          Max(Dihed)        0.00      Max(Improp)    0.00
          ---------------------------------------------------------------------

       The step convergence is overachieved with 
       reasonable convergence on the gradient
       Convergence will therefore be signaled now


                    ***********************HURRAY********************
                    ***        THE OPTIMIZATION HAS CONVERGED     ***
                    *************************************************


    ---------------------------------------------------------------------------
                         Redundant Internal Coordinates

                          --- Optimized Parameters ---  
                            (Angstroem and degrees)

        Definition                    OldVal   dE/dq     Step     FinalVal
    ----------------------------------------------------------------------------
     1. B(F   1,C   0)                1.3150  0.000760 -0.0006    1.3144   
     2. B(F   2,C   0)                1.3150  0.000022 -0.0000    1.3150   
     3. B(F   3,C   0)                1.3150  0.000022 -0.0000    1.3150   
     4. A(F   2,C   0,F   3)          111.50  0.000092    0.00    111.50 C 
     5. A(F   1,C   0,F   2)          111.50  0.000470   -0.00    111.50 C 
     6. A(F   1,C   0,F   3)          111.50  0.000470    0.00    111.50 C 
     7. I(F   1,F   3,F   2,C   0)     49.37 -0.001083    0.00     49.37   
    ----------------------------------------------------------------------------
                 *******************************************************
                 *** FINAL ENERGY EVALUATION AT THE STATIONARY POINT ***
                 ***               (AFTER    1 CYCLES)               ***
                 *******************************************************
---------------------------------
CARTESIAN COORDINATES (ANGSTROEM)
---------------------------------
  C      0.000155   -0.000000   -0.000046
  F      1.254689   -0.000000   -0.392253
  F     -0.627422    1.086951   -0.392301
  F     -0.627422   -1.086951   -0.392301

----------------------------
CARTESIAN COORDINATES (A.U.)
----------------------------
  NO LB      ZA    FRAG     MASS         X           Y           Z
   0 C     6.0000    0    12.011    0.000293   -0.000000   -0.000088
   1 F     9.0000    0    18.998    2.371019   -0.000000   -0.741250
   2 F     9.0000    0    18.998   -1.185656    2.054040   -0.741342
   3 F     9.0000    0    18.998   -1.185656   -2.054040   -0.741342

--------------------------------
INTERNAL COORDINATES (ANGSTROEM)
--------------------------------
 C      0   0   0     0.000000000000     0.00000000     0.00000000
 F      1   0   0     1.314413070387     0.00000000     0.00000000
 F      1   2   0     1.314982669104   111.50000004     0.00000000
 F      1   2   3     1.314982659751   111.50000004   125.34756995

---------------------------
INTERNAL COORDINATES (A.U.)
---------------------------
 C      0   0   0     0.000000000000     0.00000000     0.00000000
 F      1   0   0     2.483880729878     0.00000000     0.00000000
 F      1   2   0     2.484957115460   111.50000004     0.00000000
 F      1   2   3     2.484957097784   111.50000004   125.34756995

---------------------
BASIS SET INFORMATION
---------------------
There are 2 groups of distinct atoms

 Group   1 Type C   : 12s6p3d1f contracted to 6s3p3d1f pattern {621111/411/111/1}
 Group   2 Type F   : 12s7p3d1f contracted to 6s4p3d1f pattern {621111/4111/111/1}

Atom   0C    basis set group =>   1
Atom   1F    basis set group =>   2
Atom   2F    basis set group =>   2
Atom   3F    basis set group =>   2
---------------------------------
AUXILIARY/J BASIS SET INFORMATION
---------------------------------
There are 2 groups of distinct atoms

 Group   1 Type C   : 12s5p4d2f1g contracted to 6s4p3d1f1g pattern {711111/2111/211/2/1}
 Group   2 Type F   : 12s5p4d2f1g contracted to 6s4p3d1f1g pattern {711111/2111/211/2/1}

Atom   0C    basis set group =>   1
Atom   1F    basis set group =>   2
Atom   2F    basis set group =>   2
Atom   3F    basis set group =>   2


           ************************************************************
           *        Program running with 18 parallel MPI-processes    *
           *              working on a common directory               *
           ************************************************************
------------------------------------------------------------------------------
                           ORCA GTO INTEGRAL CALCULATION
                           -- RI-GTO INTEGRALS CHOSEN --
------------------------------------------------------------------------------
------------------------------------------------------------------------------
                   ___                                                        
                  /   \      - P O W E R E D   B Y -                         
                 /     \                                                     
                 |  |  |   _    _      __       _____    __    __             
                 |  |  |  | |  | |    /  \     |  _  \  |  |  /  |          
                  \  \/   | |  | |   /    \    | | | |  |  | /  /          
                 / \  \   | |__| |  /  /\  \   | |_| |  |  |/  /          
                |  |  |   |  __  | /  /__\  \  |    /   |      \           
                |  |  |   | |  | | |   __   |  |    \   |  |\   \          
                \     /   | |  | | |  |  |  |  | |\  \  |  | \   \       
                 \___/    |_|  |_| |__|  |__|  |_| \__\ |__|  \__/        
                                                                              
                      - O R C A' S   B I G   F R I E N D -                    
                                      &                                       
                       - I N T E G R A L  F E E D E R -                       
                                                                              
 v1 FN, 2020, v2 2021                                                         
------------------------------------------------------------------------------


Reading SHARK input file /beegfs/scratch/ispackman/PFAS_EPR_calcs/benchmark/JChemEd_CF3_radical/CF3_radical_111.5_degrees_IN-PROGRESS/CF3_radical_111.5_degrees.SHARKINP.tmp ... ok
----------------------
SHARK INTEGRAL PACKAGE
----------------------

Number of atoms                             ...      4
Number of basis functions                   ...    157
Number of shells                            ...     55
Maximum angular momentum                    ...      3
Integral batch strategy                     ... SHARK/LIBINT Hybrid
RI-J (if used) integral strategy            ... SPLIT-RIJ (Revised 2003 algorithm where possible)
Printlevel                                  ...      1
Contraction scheme used                     ... SEGMENTED contraction
Coulomb Range Separation                    ... NOT USED
Exchange Range Separation                   ... Long Range
   Mu parameter                             ...  0.250000
   Scaling (regular/separated)              ...  0.195728  0.804272
Finite Nucleus Model                        ... NOT USED
Auxiliary Coulomb fitting basis             ... AVAILABLE
   # of basis functions in Aux-J            ...    196
   # of shells in Aux-J                     ...     60
   Maximum angular momentum in Aux-J        ...      4
Auxiliary J/K fitting basis                 ... NOT available
Auxiliary Correlation fitting basis         ... NOT available
Auxiliary 'external' fitting basis          ... NOT available
Integral threshold                          ...     2.500000e-11
Primitive cut-off                           ...     2.500000e-12
Primitive pair pre-selection threshold      ...     2.500000e-12

Calculating pre-screening integrals         ... done (  0.0 sec) Dimension = 55
Organizing shell pair data                  ... done (  0.0 sec)
Shell pair information
Total number of shell pairs                 ...      1540
Shell pairs after pre-screening             ...      1504
Total number of primitive shell pairs       ...      4274
Primitive shell pairs kept                  ...      3533
          la=0 lb=0:    282 shell pairs
          la=1 lb=0:    354 shell pairs
          la=1 lb=1:    120 shell pairs
          la=2 lb=0:    276 shell pairs
          la=2 lb=1:    180 shell pairs
          la=2 lb=2:     78 shell pairs
          la=3 lb=0:     96 shell pairs
          la=3 lb=1:     60 shell pairs
          la=3 lb=2:     48 shell pairs
          la=3 lb=3:     10 shell pairs

Calculating one electron integrals          ... done (  0.0 sec)
Calculating RI/J V-Matrix + Cholesky decomp.... done (  0.0 sec)
Calculating Nuclear repulsion               ... done (  0.0 sec) ENN=    124.361949585280 Eh

SHARK setup successfully completed in   0.3 seconds

Maximum memory used throughout the entire GTOINT-calculation: 15.2 MB


           ************************************************************
           *        Program running with 18 parallel MPI-processes    *
           *              working on a common directory               *
           ************************************************************
-------------------------------------------------------------------------------
                                 ORCA SCF
-------------------------------------------------------------------------------

------------
SCF SETTINGS
------------
Hamiltonian:
 Density Functional     Method          .... DFT(GTOs)
 Exchange Functional    Exchange        .... WB97X-D3
 Correlation Functional Correlation     .... WB97X-D3
 Gradients option       PostSCFGGA      .... off
 Hybrid DFT is turned on
   Fraction HF Exchange ScalHFX         ....  0.195728
   Scaling of DF-GGA-X  ScalDFX         ....  0.000000
   Scaling of DF-GGA-C  ScalDFC         ....  1.000000
   Scaling of DF-LDA-C  ScalLDAC        ....  1.000000
   Perturbative correction              ....  0.000000
   Density functional embedding theory  .... OFF
 Long-range corrected/Screened/Range-Separated Hybrid DFT is turned on
   Amount of maximum screened exact exchange              ....  0.804272
   Range separation parameter mu (erf(mu*r12)/r12)        ....  0.250000
 RI-approximation to the Coulomb term is turned on
   Number of AuxJ basis functions       .... 196
   RIJ-COSX (HFX calculated with COS-X)).... on


General Settings:
 Integral files         IntName         .... /beegfs/scratch/ispackman/PFAS_EPR_calcs/benchmark/JChemEd_CF3_radical/CF3_radical_111.5_degrees_IN-PROGRESS/CF3_radical_111.5_degrees
 Hartree-Fock type      HFTyp           .... UHF
 Total Charge           Charge          ....    0
 Multiplicity           Mult            ....    2
 Number of Electrons    NEL             ....   33
 Basis Dimension        Dim             ....  157
 Nuclear Repulsion      ENuc            ....    124.3619495853 Eh

Convergence Acceleration:
 DIIS                   CNVDIIS         .... on
   Start iteration      DIISMaxIt       ....    12
   Startup error        DIISStart       ....  0.200000
   # of expansion vecs  DIISMaxEq       ....     5
   Bias factor          DIISBfac        ....   1.050
   Max. coefficient     DIISMaxC        ....  10.000
 Trust-Rad. Augm. Hess. CNVTRAH         .... auto
   Auto Start mean grad. ratio tolernc. ....  1.125000
   Auto Start start iteration           ....     1
   Auto Start num. interpolation iter.  ....    10
   Max. Number of Micro iterations      ....    16
   Max. Number of Macro iterations      .... Maxiter - #DIIS iter
   Number of Davidson start vectors     ....     2
[...]
  VA   - Mayer's total valence
  BVA  - Mayer's bonded valence
  FA   - Mayer's free valence

  ATOM       NA         ZA         QA         VA         BVA        FA
  0 C      5.4682     6.0000     0.5318     3.8141     3.1536     0.6605
  1 F      9.1771     9.0000    -0.1771     1.0781     1.0744     0.0037
  2 F      9.1773     9.0000    -0.1773     1.0776     1.0739     0.0037
  3 F      9.1773     9.0000    -0.1773     1.0776     1.0739     0.0037

  Mayer bond orders larger than 0.100000
B(  0-C ,  1-F ) :   1.0515 B(  0-C ,  2-F ) :   1.0510 B(  0-C ,  3-F ) :   1.0510 


-------
TIMINGS
-------

Total SCF time: 0 days 0 hours 0 min 7 sec 

Total time                  ....       7.508 sec
Sum of individual times     ....       6.734 sec  ( 89.7%)

Fock matrix formation       ....       5.618 sec  ( 74.8%)
  Split-RI-J                ....       0.755 sec  ( 13.4% of F)
  Chain of spheres X        ....       2.181 sec  ( 38.8% of F)
  XC integration            ....       1.059 sec  ( 18.8% of F)
    Basis function eval.    ....       0.073 sec  (  6.9% of XC)
    Density eval.           ....       0.091 sec  (  8.6% of XC)
    XC-Functional eval.     ....       0.039 sec  (  3.7% of XC)
    XC-Potential eval.      ....       0.145 sec  ( 13.7% of XC)
Diagonalization             ....       0.234 sec  (  3.1%)
Density matrix formation    ....       0.009 sec  (  0.1%)
Population analysis         ....       0.150 sec  (  2.0%)
Initial guess               ....       0.020 sec  (  0.3%)
Orbital Transformation      ....       0.000 sec  (  0.0%)
Orbital Orthonormalization  ....       0.010 sec  (  0.1%)
DIIS solution               ....       0.212 sec  (  2.8%)
Grid generation             ....       0.491 sec  (  6.5%)

Maximum memory used throughout the entire SCF-calculation: 63.1 MB


-------------------------------------------------------------------------------
                          DFT DISPERSION CORRECTION                            
                                                                               
                              DFTD3 V3.1  Rev 1                                
                              USING zero damping                               
-------------------------------------------------------------------------------
The omegaB97X-D3 functional is recognized. Fit by Chai et al.
Active option DFTDOPT                   ...         3   

molecular C6(AA) [au] = 165.759826 


            DFT-D V3
 parameters
 s6 scaling factor         :     1.0000 
 rs6 scaling factor        :     1.2810 
 s8 scaling factor         :     1.0000 
 rs8 scaling factor        :     1.0940 
 Damping factor alpha6     :    14.0000 
 Damping factor alpha8     :    16.0000 
 ad hoc parameters k1-k3   :    16.0000     1.3333    -4.0000 

 Edisp/kcal,au: -0.052276434265  -0.000083307792 
 E6   /kcal   :  -0.006690879 
 E8   /kcal   :  -0.045585555 
 % E8         :  87.200964847 

-------------------------   ----------------
Dispersion correction           -0.000083308
-------------------------   ----------------


-------------------------   --------------------
FINAL SINGLE POINT ENERGY      -337.632731021150
-------------------------   --------------------

                                *** OPTIMIZATION RUN DONE ***

                            ***************************************
                            *     ORCA property calculations      *
                            ***************************************

                                    ---------------------
                                    Active property flags
                                    ---------------------
   (+) Dipole Moment


------------------------------------------------------------------------------
                       ORCA ELECTRIC PROPERTIES CALCULATION
------------------------------------------------------------------------------

Dipole Moment Calculation                       ... on
Quadrupole Moment Calculation                   ... off
Polarizability Calculation                      ... off
GBWName                                         ... /beegfs/scratch/ispackman/PFAS_EPR_calcs/benchmark/JChemEd_CF3_radical/CF3_radical_111.5_degrees_IN-PROGRESS/CF3_radical_111.5_degrees.gbw
Electron density                                ... /beegfs/scratch/ispackman/PFAS_EPR_calcs/benchmark/JChemEd_CF3_radical/CF3_radical_111.5_degrees_IN-PROGRESS/CF3_radical_111.5_degrees.scfp
The origin for moment calculation is the CENTER OF MASS  = (-0.000030,  0.000000 -0.612294)

-------------
DIPOLE MOMENT
-------------
                                X             Y             Z
Electronic contribution:      0.00103      -0.00000      -0.08772
Nuclear contribution   :      0.00010      -0.00000       0.18977
                        -----------------------------------------
Total Dipole Moment    :      0.00113      -0.00000       0.10205
                        -----------------------------------------
Magnitude (a.u.)       :      0.10206
Magnitude (Debye)      :      0.25941



--------------------
Rotational spectrum 
--------------------
 
Rotational constants in cm-1:     0.363380     0.363177     0.187817 
Rotational constants in MHz : 10893.864835 10887.781105  5630.604867 

 Dipole components along the rotational axes: 
x,y,z [a.u.] :    -0.000000    -0.001138     0.102050 
x,y,z [Debye]:    -0.000001    -0.002892     0.259391 

 


           ************************************************************
           *        Program running with 18 parallel MPI-processes    *
           *              working on a common directory               *
           ************************************************************

-------------------------------------------------------------------------------
                               ORCA SCF HESSIAN
-------------------------------------------------------------------------------

                   --------- SHARK INITIALIZATION DONE ---------

Hessian of the Kohn-Sham DFT energy:
Kohn-Sham wavefunction type                      ... UKS
Hartree-Fock exchange scaling                    ...    0.196
Number of operators                              ...    2
Number of atoms                                  ...    4
Basis set dimensions                             ...  157
Integral neglect threshold                       ... 2.5e-11
Integral primitive cutoff                        ... 2.5e-12

Setting up DFT Hessian calculations              ... 

HESS GRID
---------

General Integration Accuracy     IntAcc      ... 4.629
Radial Grid Type                 RadialGrid  ... OptM3 with GC (2021)
Angular Grid (max. ang.)         AngularGrid ... 5 (Lebedev-434)
Angular grid pruning method      GridPruning ... 4 (adaptive)
Weight generation scheme         WeightScheme... Becke
Basis function cutoff            BFCut       ... 1.0000e-11
Integration weight cutoff        WCut        ... 1.0000e-14
Angular grids for H and He will be reduced by one unit
Partially contracted basis set               ... off
Rotationally invariant grid construction     ... off

Total number of grid points                  ...    39950
Total number of batches                      ...      626
Average number of points per batch           ...       63
Average number of grid points per atom       ...     9988

Building densities                               ... done   (      0.0 sec)
Calculating rho(r) on the grid                   ... done   (      0.1 sec)
Building xc-kernel on the grid                   ... done   (      0.1 sec)
                                                     done   (      0.6 sec)

Nuclear repulsion Hessian  (SHARK)               ... done   (      0.0 sec)

----------------------------------------------
Forming right-hand sides of CP-SCF equations     ...
----------------------------------------------
One electron integral derivatives  (SHARK)       ... done   (      0.0 sec)
Transforming the overlap derivative matrices     ... done   (      0.0 sec)
Making the Q(x) pseudodensities                  ... done   (      0.0 sec)
Adding the E*S(x)*S(y) terms to the Hessian      ... done   (      0.0 sec)
Calculating energy weighted overlap derivatives  ... done   (      0.0 sec)
Two electron integral derivatives (SHARK-RI)     ... done   (      2.4 sec)
Exchange-correlation integral derivatives        ... done   (      2.3 sec)
tr(F(y)Q(x)) contribution to the Hessian         ... done   (      0.0 sec)
Response fock operator R(S(x)) (SHARK-RIJCOSX)   ... done   (      0.9 sec)
XC Response fock operator R(S(x))                ... done   (      0.4 sec)
tr(F(y)S(x)) contribution to the Hessian         ... done   (      0.0 sec)
Transforming and finalizing RHSs                 ... done   (      0.1 sec)

----------------------------------------------
Solving the CP-SCF equations (RIJCOSX)           ...
----------------------------------------------
     CP-SCF ITERATION   0:   1.6177e-01 (   0.5 sec   0/ 12 done)
     CP-SCF ITERATION   1:   4.0540e-02 (   0.4 sec   0/ 12 done)
     CP-SCF ITERATION   2:   1.2422e-02 (   0.4 sec   0/ 12 done)
     CP-SCF ITERATION   3:   3.1456e-03 (   0.5 sec   0/ 12 done)
     CP-SCF ITERATION   4:   9.7768e-04 (   0.5 sec   0/ 12 done)
     CP-SCF ITERATION   5:   3.9252e-04 (   0.4 sec   1/ 12 done)
     CP-SCF ITERATION   6:   1.0183e-04 (   0.5 sec  11/ 12 done)
     CP-SCF ITERATION   7:   2.2790e-05 (   0.3 sec  12/ 12 done)
                    *** THE CP-SCF HAS CONVERGED ***

                                                 ... done   (      3.8 sec)
Forming perturbed density Hessian contributions  ... done   (      0.0 sec)
2nd integral derivative contribs (SHARK-RI)      ... done   (      6.7 sec)
Exchange-correlation Hessian                     ... done   (      0.9 sec)
Dispersion correction in the Hessian             ... done   (      0.1 sec)
Dipole derivatives                               ... (center of mass: -0.000030,  0.000000 -0.612294)done   (      0.1 sec)

Total SCF Hessian time: 0 days 0 hours 0 min 19 sec 

Writing the Hessian file to the disk             ... done


Maximum memory used throughout the entire SCFHESS-calculation: 142.3 MB

-----------------------
VIBRATIONAL FREQUENCIES
-----------------------

Scaling factor for frequencies =  1.000000000  (already applied!)

   0:         0.00 cm**-1
   1:         0.00 cm**-1
   2:         0.00 cm**-1
   3:         0.00 cm**-1
   4:         0.00 cm**-1
   5:         0.00 cm**-1
   6:       510.79 cm**-1
   7:       511.09 cm**-1
   8:       706.98 cm**-1
   9:      1096.36 cm**-1
  10:      1271.43 cm**-1
  11:      1273.14 cm**-1


------------
NORMAL MODES
------------

These modes are the Cartesian displacements weighted by the diagonal matrix
M(i,i)=1/sqrt(m[i]) where m[i] is the mass of the displaced atom
Thus, these vectors are normalized but *not* orthogonal

                  0          1          2          3          4          5    
      0       0.000000   0.000000   0.000000   0.000000   0.000000   0.000000
      1       0.000000   0.000000   0.000000   0.000000   0.000000   0.000000
      2       0.000000   0.000000   0.000000   0.000000   0.000000   0.000000
      3       0.000000   0.000000   0.000000   0.000000   0.000000   0.000000
      4       0.000000   0.000000   0.000000   0.000000   0.000000   0.000000
      5       0.000000   0.000000   0.000000   0.000000   0.000000   0.000000
      6       0.000000   0.000000   0.000000   0.000000   0.000000   0.000000
      7       0.000000   0.000000   0.000000   0.000000   0.000000   0.000000
      8       0.000000   0.000000   0.000000   0.000000   0.000000   0.000000
      9       0.000000   0.000000   0.000000   0.000000   0.000000   0.000000
     10       0.000000   0.000000   0.000000   0.000000   0.000000   0.000000
     11       0.000000   0.000000   0.000000   0.000000   0.000000   0.000000
                  6          7          8          9         10         11    
      0      -0.327697   0.000003  -0.000795  -0.004764   0.000088   0.899426
      1       0.000004   0.327456  -0.000000   0.000000  -0.899490   0.000088
      2      -0.000674   0.000000   0.630772  -0.801200  -0.000000  -0.003605
      3      -0.470370   0.000005  -0.428358  -0.299820  -0.000033  -0.335065
      4      -0.000006  -0.609375   0.000000  -0.000000   0.045740  -0.000004
      5      -0.043048   0.000000  -0.133089   0.168266   0.000012   0.119263
      6       0.338769  -0.467820   0.214430   0.151416  -0.124581  -0.116775
      7       0.468528   0.201170  -0.369908  -0.261518   0.261482   0.123277
      8       0.021738   0.037341  -0.132850   0.169136  -0.102616  -0.058482
      9       0.338779   0.467813   0.214430   0.151416   0.124558  -0.116799
     10      -0.468524   0.201180   0.369908   0.261518   0.261458  -0.123328
     11       0.021737  -0.037342  -0.132850   0.169136   0.102605  -0.058502


-----------
IR SPECTRUM
-----------

 Mode   freq       eps      Int      T**2         TX        TY        TZ
       cm**-1   L/(mol*cm) km/mol    a.u.
----------------------------------------------------------------------------
  6:    510.79   0.000302    1.52  0.000184  (-0.013575  0.000000 -0.000036)
  7:    511.09   0.000298    1.51  0.000182  ( 0.000000  0.013495  0.000000)
  8:    706.98   0.002378   12.02  0.001050  (-0.000088 -0.000000  0.032399)
  9:   1096.36   0.007474   37.77  0.002127  (-0.000725  0.000000 -0.046117)
 10:   1271.43   0.072127  364.50  0.017703  ( 0.000013 -0.133052 -0.000000)
 11:   1273.14   0.072165  364.69  0.017689  ( 0.132998  0.000013 -0.000157)

* The epsilon (eps) is given for a Dirac delta lineshape.
** The dipole moment derivative (T) already includes vibrational overlap.

The first frequency considered to be a vibration is 6
The total number of vibrations considered is 6


--------------------------
THERMOCHEMISTRY AT 298.15K
--------------------------

Temperature         ... 298.15 K
Pressure            ... 1.00 atm
Total Mass          ... 69.00 AMU

Throughout the following assumptions are being made:
  (1) The electronic state is orbitally nondegenerate
      but the spin degeneracy is treated
  (2) There are no thermally accessible electronically excited states
  (3) Hindered rotations indicated by low frequency modes are not
      treated as such but are treated as vibrations and this may
      cause some error
  (4) All equations used are the standard statistical mechanics
      equations for an ideal gas
  (5) All vibrations are strictly harmonic

freq.     510.79  E(vib)   ...       0.14 
freq.     511.09  E(vib)   ...       0.14 
freq.     706.98  E(vib)   ...       0.07 
freq.    1096.36  E(vib)   ...       0.02 
freq.    1271.43  E(vib)   ...       0.01 
freq.    1273.14  E(vib)   ...       0.01 

------------
INNER ENERGY
------------

The inner energy is: U= E(el) + E(ZPE) + E(vib) + E(rot) + E(trans)
    E(el)   - is the total energy from the electronic structure calculation
              = E(kin-el) + E(nuc-el) + E(el-el) + E(nuc-nuc)
    E(ZPE)  - the the zero temperature vibrational energy from the frequency calculation
    E(vib)  - the the finite temperature correction to E(ZPE) due to population
              of excited vibrational states
    E(rot)  - is the rotational thermal energy
    E(trans)- is the translational thermal energy

Summary of contributions to the inner energy U:
Electronic energy                ...   -337.63273102 Eh
Zero point energy                ...      0.01223329 Eh       7.68 kcal/mol
Thermal vibrational correction   ...      0.00059255 Eh       0.37 kcal/mol
Thermal rotational correction    ...      0.00141627 Eh       0.89 kcal/mol
Thermal translational correction ...      0.00141627 Eh       0.89 kcal/mol
-----------------------------------------------------------------------
Total thermal energy                   -337.61707264 Eh


Summary of corrections to the electronic energy:
(perhaps to be used in another calculation)
Total thermal correction                  0.00342509 Eh       2.15 kcal/mol
Non-thermal (ZPE) correction              0.01223329 Eh       7.68 kcal/mol
-----------------------------------------------------------------------
Total correction                          0.01565838 Eh       9.83 kcal/mol


--------
ENTHALPY
--------

The enthalpy is H = U + kB*T
                kB is Boltzmann's constant
Total free energy                 ...   -337.61707264 Eh 
Thermal Enthalpy correction       ...      0.00094421 Eh       0.59 kcal/mol
-----------------------------------------------------------------------
Total Enthalpy                    ...   -337.61612843 Eh


Note: Rotational entropy computed according to Herzberg 
Infrared and Raman Spectra, Chapter V,1, Van Nostrand Reinhold, 1945 
Point Group:  Cs, Symmetry Number:   1  
Rotational constants in cm-1:     0.363380     0.363177     0.187817 

Vibrational entropy computed according to the QRRHO of S. Grimme
Chem.Eur.J. 2012 18 9955


-------
ENTROPY
-------

The entropy contributions are T*S = T*(S(el)+S(vib)+S(rot)+S(trans))
     S(el)   - electronic entropy
     S(vib)  - vibrational entropy
     S(rot)  - rotational entropy
     S(trans)- translational entropy
The entropies will be listed as multiplied by the temperature to get
units of energy

Electronic entropy                ...      0.00065446 Eh      0.41 kcal/mol
Vibrational entropy               ...      0.00080169 Eh      0.50 kcal/mol
Rotational entropy                ...      0.01125635 Eh      7.06 kcal/mol
Translational entropy             ...      0.01834582 Eh     11.51 kcal/mol
-----------------------------------------------------------------------
Final entropy term                ...      0.03105831 Eh     19.49 kcal/mol

In case the symmetry of your molecule has not been determined correctly
or in case you have a reason to use a different symmetry number we print 
out the resulting rotational entropy values for sn=1,12 :
 --------------------------------------------------------
|  sn= 1 | S(rot)=       0.01125635 Eh      7.06 kcal/mol|
|  sn= 2 | S(rot)=       0.01060189 Eh      6.65 kcal/mol|
|  sn= 3 | S(rot)=       0.01021906 Eh      6.41 kcal/mol|
|  sn= 4 | S(rot)=       0.00994743 Eh      6.24 kcal/mol|
|  sn= 5 | S(rot)=       0.00973674 Eh      6.11 kcal/mol|
|  sn= 6 | S(rot)=       0.00956460 Eh      6.00 kcal/mol|
|  sn= 7 | S(rot)=       0.00941905 Eh      5.91 kcal/mol|
|  sn= 8 | S(rot)=       0.00929298 Eh      5.83 kcal/mol|
|  sn= 9 | S(rot)=       0.00918177 Eh      5.76 kcal/mol|
|  sn=10 | S(rot)=       0.00908229 Eh      5.70 kcal/mol|
|  sn=11 | S(rot)=       0.00899230 Eh      5.64 kcal/mol|
|  sn=12 | S(rot)=       0.00891014 Eh      5.59 kcal/mol|
 --------------------------------------------------------


-------------------
GIBBS FREE ENERGY
-------------------

The Gibbs free energy is G = H - T*S

Total enthalpy                    ...   -337.61612843 Eh 
Total entropy correction          ...     -0.03105831 Eh    -19.49 kcal/mol
-----------------------------------------------------------------------
Final Gibbs free energy         ...   -337.64718674 Eh

For completeness - the Gibbs free energy minus the electronic energy
G-E(el)                           ...     -0.01445572 Eh     -9.07 kcal/mol


Timings for individual modules:

Sum of individual times         ...       97.051 sec (=   1.618 min)
GTO integral calculation        ...       41.014 sec (=   0.684 min)  42.3 %
SCF iterations                  ...       28.728 sec (=   0.479 min)  29.6 %
SCF Gradient evaluation         ...        5.078 sec (=   0.085 min)   5.2 %
Geometry relaxation             ...        0.167 sec (=   0.003 min)   0.2 %
Analytical frequency calculation...       22.065 sec (=   0.368 min)  22.7 %
                             ****ORCA TERMINATED NORMALLY****
TOTAL RUN TIME: 0 days 0 hours 1 minutes 41 seconds 237 msec

slurmID:    32260063
totalRuntime[s]:    101.332165486
