
                                 *****************
                                 * O   R   C   A *
                                 *****************

                                            #,                                       
                                            ###                                      
                                            ####                                     
                                            #####                                    
                                            ######                                   
                                           ########,                                 
                                     ,,################,,,,,                         
                               ,,#################################,,                 
                          ,,##########################################,,             
                       ,#########################################, ''#####,          
                    ,#############################################,,   '####,        
                  ,##################################################,,,,####,       
                ,###########''''           ''''###############################       
              ,#####''   ,,,,##########,,,,          '''####'''          '####       
            ,##' ,,,,###########################,,,                        '##       
           ' ,,###''''                  '''############,,,                           
         ,,##''                                '''############,,,,        ,,,,,,###''
      ,#''                                            '''#######################'''  
     '                                                          ''''####''''         
             ,#######,   #######,   ,#######,      ##                                
            ,#'     '#,  ##    ##  ,#'     '#,    #''#        ######   ,####,        
            ##       ##  ##   ,#'  ##            #'  '#       #        #'  '#        
            ##       ##  #######   ##           ,######,      #####,   #    #        
            '#,     ,#'  ##    ##  '#,     ,#' ,#      #,         ##   #,  ,#        
             '#######'   ##     ##  '#######'  #'      '#     #####' # '####'        



                  #######################################################
                  #                        -***-                        #
                  #          Department of theory and spectroscopy      #
                  #    Directorship and core code : Frank Neese         #
                  #        Max Planck Institute fuer Kohlenforschung    #
                  #                Kaiser Wilhelm Platz 1               #
                  #                 D-45470 Muelheim/Ruhr               #
                  #                      Germany                        #
                  #                                                     #
                  #                  All rights reserved                #
                  #                        -***-                        #
                  #######################################################


                         Program Version 5.0.4 -  RELEASE  -


 With contributions from (in alphabetic order):
   Daniel Aravena         : Magnetic Suceptibility
   Michael Atanasov       : Ab Initio Ligand Field Theory (pilot matlab implementation)
   Alexander A. Auer      : GIAO ZORA, VPT2 properties, NMR spectrum
   Ute Becker             : Parallelization
   Giovanni Bistoni       : ED, misc. LED, open-shell LED, HFLD
   Martin Brehm           : Molecular dynamics
   Dmytro Bykov           : SCF Hessian
   Vijay G. Chilkuri      : MRCI spin determinant printing, contributions to CSF-ICE
   Dipayan Datta          : RHF DLPNO-CCSD density
   Achintya Kumar Dutta   : EOM-CC, STEOM-CC
   Dmitry Ganyushin       : Spin-Orbit,Spin-Spin,Magnetic field MRCI
   Miquel Garcia          : C-PCM and meta-GGA Hessian, CC/C-PCM, Gaussian charge scheme
   Yang Guo               : DLPNO-NEVPT2, F12-NEVPT2, CIM, IAO-localization
   Andreas Hansen         : Spin unrestricted coupled pair/coupled cluster methods
   Benjamin Helmich-Paris : MC-RPA, TRAH-SCF, COSX integrals
   Lee Huntington         : MR-EOM, pCC
   Robert Izsak           : Overlap fitted RIJCOSX, COSX-SCS-MP3, EOM
   Marcus Kettner         : VPT2
   Christian Kollmar      : KDIIS, OOCD, Brueckner-CCSD(T), CCSD density, CASPT2, CASPT2-K
   Simone Kossmann        : Meta GGA functionals, TD-DFT gradient, OOMP2, MP2 Hessian
   Martin Krupicka        : Initial AUTO-CI
   Lucas Lang             : DCDCAS
   Marvin Lechner         : AUTO-CI (C++ implementation), FIC-MRCC
   Dagmar Lenk            : GEPOL surface, SMD
   Dimitrios Liakos       : Extrapolation schemes; Compound Job, initial MDCI parallelization
   Dimitrios Manganas     : Further ROCIS development; embedding schemes
   Dimitrios Pantazis     : SARC Basis sets
   Anastasios Papadopoulos: AUTO-CI, single reference methods and gradients
   Taras Petrenko         : DFT Hessian,TD-DFT gradient, ASA, ECA, R-Raman, ABS, FL, XAS/XES, NRVS
   Peter Pinski           : DLPNO-MP2, DLPNO-MP2 Gradient
   Christoph Reimann      : Effective Core Potentials
   Marius Retegan         : Local ZFS, SOC
   Christoph Riplinger    : Optimizer, TS searches, QM/MM, DLPNO-CCSD(T), (RO)-DLPNO pert. Triples
   Tobias Risthaus        : Range-separated hybrids, TD-DFT gradient, RPA, STAB
   Michael Roemelt        : Original ROCIS implementation
   Masaaki Saitow         : Open-shell DLPNO-CCSD energy and density
   Barbara Sandhoefer     : DKH picture change effects
   Avijit Sen             : IP-ROCIS
   Kantharuban Sivalingam : CASSCF convergence, NEVPT2, FIC-MRCI
   Bernardo de Souza      : ESD, SOC TD-DFT
   Georgi Stoychev        : AutoAux, RI-MP2 NMR, DLPNO-MP2 response
   Willem Van den Heuvel  : Paramagnetic NMR
   Boris Wezisla          : Elementary symmetry handling
   Frank Wennmohs         : Technical directorship


 We gratefully acknowledge several colleagues who have allowed us to
 interface, adapt or use parts of their codes:
   Stefan Grimme, W. Hujo, H. Kruse, P. Pracht,  : VdW corrections, initial TS optimization,
                  C. Bannwarth, S. Ehlert          DFT functionals, gCP, sTDA/sTD-DF
   Ed Valeev, F. Pavosevic, A. Kumar             : LibInt (2-el integral package), F12 methods
   Garnet Chan, S. Sharma, J. Yang, R. Olivares  : DMRG
   Ulf Ekstrom                                   : XCFun DFT Library
   Mihaly Kallay                                 : mrcc  (arbitrary order and MRCC methods)
   Jiri Pittner, Ondrej Demel                    : Mk-CCSD
   Frank Weinhold                                : gennbo (NPA and NBO analysis)
   Christopher J. Cramer and Donald G. Truhlar   : smd solvation model
   Lars Goerigk                                  : TD-DFT with DH, B97 family of functionals
   V. Asgeirsson, H. Jonsson                     : NEB implementation
   FAccTs GmbH                                   : IRC, NEB, NEB-TS, DLPNO-Multilevel, CI-OPT
                                                   MM, QMMM, 2- and 3-layer-ONIOM, Crystal-QMMM,
                                                   LR-CPCM, SF, NACMEs, symmetry and pop. for TD-DFT,
                                                   nearIR, NL-DFT gradient (VV10), updates on ESD,
                                                   ML-optimized integration grids
   S Lehtola, MJT Oliveira, MAL Marques          : LibXC Library
   Liviu Ungur et al                             : ANISO software


 Your calculation uses the libint2 library for the computation of 2-el integrals
 For citations please refer to: http://libint.valeyev.net

 Your ORCA version has been built with support for libXC version: 5.1.0
 For citations please refer to: https://tddft.org/programs/libxc/

 This ORCA versions uses:
   CBLAS   interface :  Fast vector & matrix operations
   LAPACKE interface :  Fast linear algebra routines
   SCALAPACK package :  Parallel linear algebra routines
   Shared memory     :  Shared parallel matrices
   BLAS/LAPACK       :  OpenBLAS 0.3.15  USE64BITINT DYNAMIC_ARCH NO_AFFINITY SkylakeX SINGLE_THREADED
        Core in use  :  SkylakeX
   Copyright (c) 2011-2014, The OpenBLAS Project


Your calculation utilizes the atom-pairwise dispersion correction
with the zero-damping scheme (D30)
Cite in your paper:
S.Grimme, J.Antony, S.Ehrlich and H.Krieg, J.Chem.Phys., 132, (2010), 154104 
   

XCFun DFT library Copyright 2009-2010 Ulf Ekstrom and contributors.
See http://admol.org/xcfun for more information.
This is free software; see the source code for copying conditions.
There is ABSOLUTELY NO WARRANTY; not even for MERCHANTABILITY or FITNESS FOR A PARTICULAR PURPOSE.
For details see the documentation.
Scientific users of this library should cite U. Ekstrom, L. Visscher, R. Bast, A. J. Thorvaldsen and K. Ruud;
J.Chem.Theor.Comp. 2010, DOI: 10.1021/ct100117s
XCFun Version 0.99 

================================================================================

----- Orbital basis set information -----
Your calculation utilizes the basis: def2-TZVPD
   F. Weigend and R. Ahlrichs, Phys. Chem. Chem. Phys. 7, 3297 (2005).
   D. Rappoport and F. Furche, J. Chem. Phys. 133 134105 (2010).

----- AuxJ basis set information -----
Your calculation utilizes the auxiliary basis: def2/J
   F. Weigend, Phys. Chem. Chem. Phys. 8, 1057 (2006).

================================================================================
                                        WARNINGS
                       Please study these warnings very carefully!
================================================================================


WARNING: Geometry Optimization
  ===> : Switching off AutoStart
         For restart on a previous wavefunction, please use MOREAD

INFO   : the flag for use of the SHARK integral package has been found!

================================================================================
                                       INPUT FILE
================================================================================
NAME = /beegfs/scratch/ispackman/PFAS_EPR_calcs/benchmark/JChemEd_CF3_radical/CF3_radical_107.5_degrees_IN-PROGRESS/CF3_radical_107.5_degrees.inp
|  1> ! UKS TightSCF wB97x-D3 def2-TZVPD xyzfile opt freq
|  2> 
|  3> # CF3 radical 107.5 degrees fixed
|  4> 
|  5> %maxcore 1000
|  6> %pal
|  7> nprocs 18
|  8> end
|  9> 
| 10> %geom Constraints
| 11>         { A * 0 * C }
| 12>     end
| 13> end
| 14> * xyz 0 2
| 15> C 0.00 0.00 0.00
| 16> F 1.2245306546 0.0000000000 -0.4793221004
| 17> F -0.6122653273 1.0604746546 -0.4793221004
| 18> F -0.6122653273 -1.0604746546 -0.4793221004
| 19> **                         ****END OF INPUT****
================================================================================

                       *****************************
                       * Geometry Optimization Run *
                       *****************************

Geometry optimization settings:
Update method            Update   .... BFGS
Choice of coordinates    CoordSys .... Z-matrix Internals
Initial Hessian          InHess   .... Almoef's Model

Convergence Tolerances:
Energy Change            TolE     ....  5.0000e-06 Eh
Max. Gradient            TolMAXG  ....  3.0000e-04 Eh/bohr
RMS Gradient             TolRMSG  ....  1.0000e-04 Eh/bohr
Max. Displacement        TolMAXD  ....  4.0000e-03 bohr
RMS Displacement         TolRMSD  ....  2.0000e-03 bohr
Strict Convergence                ....  False
------------------------------------------------------------------------------
                        ORCA OPTIMIZATION COORDINATE SETUP
------------------------------------------------------------------------------

The optimization will be done in new redundant internal coordinates
Making redundant internal coordinates   ...  (new redundants) done
Evaluating the initial hessian          ...  (Almloef) done
Evaluating the coordinates              ...  done
Calculating the B-matrix                .... done
Calculating the G-matrix                .... done
Diagonalizing the G-matrix              .... done
Imposing constraints:
 Iter   0:  RMS(Cart)=    0.0000000000 RMS(Int)=    0.0000000000
CONVERGED
Will constrain atom 0 coordinate 1 
Will constrain atom 0 coordinate 2 
Will constrain atom 1 coordinate 2 
The first mode is                       ....    1
The number of degrees of freedom        ....    6
Storing new coordinates                 .... done

    -----------------------------------------------------------------
                    Redundant Internal Coordinates


    -----------------------------------------------------------------
         Definition                    Initial Value    Approx d2E/dq
    -----------------------------------------------------------------
      1. B(F   1,C   0)                  1.3150         0.684896   
      2. B(F   2,C   0)                  1.3150         0.684896   
      3. B(F   3,C   0)                  1.3150         0.684896   
      4. A(F   2,C   0,F   3)          107.5000         0.440101 C 
      5. A(F   1,C   0,F   2)          107.5000         0.440101 C 
      6. A(F   1,C   0,F   3)          107.5000         0.440101 C 
      7. I(F   1,F   3,F   2,C   0)     59.4332         0.008266   
    -----------------------------------------------------------------

Number of atoms                         .... 4
Number of degrees of freedom            .... 7

         *************************************************************
         *                GEOMETRY OPTIMIZATION CYCLE   1            *
         *************************************************************
---------------------------------
CARTESIAN COORDINATES (ANGSTROEM)
---------------------------------
  C      0.000000    0.000000    0.000000
  F      1.224531    0.000000   -0.479322
  F     -0.612265    1.060475   -0.479322
  F     -0.612265   -1.060475   -0.479322

----------------------------
CARTESIAN COORDINATES (A.U.)
----------------------------
  NO LB      ZA    FRAG     MASS         X           Y           Z
   0 C     6.0000    0    12.011    0.000000    0.000000    0.000000
   1 F     9.0000    0    18.998    2.314028    0.000000   -0.905787
   2 F     9.0000    0    18.998   -1.157014    2.004007   -0.905787
   3 F     9.0000    0    18.998   -1.157014   -2.004007   -0.905787

--------------------------------
INTERNAL COORDINATES (ANGSTROEM)
--------------------------------
 C      0   0   0     0.000000000000     0.00000000     0.00000000
 F      1   0   0     1.314999999995     0.00000000     0.00000000
 F      1   2   0     1.314999999998   107.50000000     0.00000000
 F      1   2   3     1.314999999998   107.50000000   115.46840353

---------------------------
INTERNAL COORDINATES (A.U.)
---------------------------
 C      0   0   0     0.000000000000     0.00000000     0.00000000
 F      1   0   0     2.484989866097     0.00000000     0.00000000
 F      1   2   0     2.484989866103   107.50000000     0.00000000
 F      1   2   3     2.484989866103   107.50000000   115.46840353

---------------------
BASIS SET INFORMATION
---------------------
There are 2 groups of distinct atoms

 Group   1 Type C   : 12s6p3d1f contracted to 6s3p3d1f pattern {621111/411/111/1}
 Group   2 Type F   : 12s7p3d1f contracted to 6s4p3d1f pattern {621111/4111/111/1}

Atom   0C    basis set group =>   1
Atom   1F    basis set group =>   2
Atom   2F    basis set group =>   2
Atom   3F    basis set group =>   2
---------------------------------
AUXILIARY/J BASIS SET INFORMATION
---------------------------------
There are 2 groups of distinct atoms

 Group   1 Type C   : 12s5p4d2f1g contracted to 6s4p3d1f1g pattern {711111/2111/211/2/1}
 Group   2 Type F   : 12s5p4d2f1g contracted to 6s4p3d1f1g pattern {711111/2111/211/2/1}

Atom   0C    basis set group =>   1
Atom   1F    basis set group =>   2
Atom   2F    basis set group =>   2
Atom   3F    basis set group =>   2


           ************************************************************
           *        Program running with 18 parallel MPI-processes    *
           *              working on a common directory               *
           ************************************************************
------------------------------------------------------------------------------
                           ORCA GTO INTEGRAL CALCULATION
                           -- RI-GTO INTEGRALS CHOSEN --
------------------------------------------------------------------------------
------------------------------------------------------------------------------
                   ___                                                        
                  /   \      - P O W E R E D   B Y -                         
                 /     \                                                     
                 |  |  |   _    _      __       _____    __    __             
                 |  |  |  | |  | |    /  \     |  _  \  |  |  /  |          
                  \  \/   | |  | |   /    \    | | | |  |  | /  /          
                 / \  \   | |__| |  /  /\  \   | |_| |  |  |/  /          
                |  |  |   |  __  | /  /__\  \  |    /   |      \           
                |  |  |   | |  | | |   __   |  |    \   |  |\   \          
                \     /   | |  | | |  |  |  |  | |\  \  |  | \   \       
                 \___/    |_|  |_| |__|  |__|  |_| \__\ |__|  \__/        
                                                                              
                      - O R C A' S   B I G   F R I E N D -                    
                                      &                                       
                       - I N T E G R A L  F E E D E R -                       
                                                                              
 v1 FN, 2020, v2 2021                                                         
------------------------------------------------------------------------------


Reading SHARK input file /beegfs/scratch/ispackman/PFAS_EPR_calcs/benchmark/JChemEd_CF3_radical/CF3_radical_107.5_degrees_IN-PROGRESS/CF3_radical_107.5_degrees.SHARKINP.tmp ... ok
----------------------
SHARK INTEGRAL PACKAGE
----------------------

Number of atoms                             ...      4
Number of basis functions                   ...    157
Number of shells                            ...     55
Maximum angular momentum                    ...      3
Integral batch strategy                     ... SHARK/LIBINT Hybrid
RI-J (if used) integral strategy            ... SPLIT-RIJ (Revised 2003 algorithm where possible)
Printlevel                                  ...      1
Contraction scheme used                     ... SEGMENTED contraction
Coulomb Range Separation                    ... NOT USED
Exchange Range Separation                   ... Long Range
   Mu parameter                             ...  0.250000
   Scaling (regular/separated)              ...  0.195728  0.804272
Finite Nucleus Model                        ... NOT USED
Auxiliary Coulomb fitting basis             ... AVAILABLE
   # of basis functions in Aux-J            ...    196
   # of shells in Aux-J                     ...     60
   Maximum angular momentum in Aux-J        ...      4
Auxiliary J/K fitting basis                 ... NOT available
Auxiliary Correlation fitting basis         ... NOT available
Auxiliary 'external' fitting basis          ... NOT available
Integral threshold                          ...     2.500000e-11
Primitive cut-off                           ...     2.500000e-12
Primitive pair pre-selection threshold      ...     2.500000e-12

Calculating pre-screening integrals         ... done (  0.0 sec) Dimension = 55
Organizing shell pair data                  ... done (  0.0 sec)
Shell pair information
Total number of shell pairs                 ...      1540
Shell pairs after pre-screening             ...      1504
Total number of primitive shell pairs       ...      4274
Primitive shell pairs kept                  ...      3545
          la=0 lb=0:    282 shell pairs
          la=1 lb=0:    354 shell pairs
          la=1 lb=1:    120 shell pairs
          la=2 lb=0:    276 shell pairs
          la=2 lb=1:    180 shell pairs
          la=2 lb=2:     78 shell pairs
          la=3 lb=0:     96 shell pairs
          la=3 lb=1:     60 shell pairs
          la=3 lb=2:     48 shell pairs
          la=3 lb=3:     10 shell pairs

Calculating one electron integrals          ... done (  0.0 sec)
Calculating RI/J V-Matrix + Cholesky decomp.... done (  1.1 sec)
Calculating Nuclear repulsion               ... done (  0.0 sec) ENN=    125.819953481612 Eh

SHARK setup successfully completed in   7.4 seconds

Maximum memory used throughout the entire GTOINT-calculation: 15.2 MB


           ************************************************************
           *        Program running with 18 parallel MPI-processes    *
           *              working on a common directory               *
           ************************************************************
-------------------------------------------------------------------------------
                                 ORCA SCF
-------------------------------------------------------------------------------

------------
SCF SETTINGS
------------
Hamiltonian:
 Density Functional     Method          .... DFT(GTOs)
 Exchange Functional    Exchange        .... WB97X-D3
 Correlation Functional Correlation     .... WB97X-D3
 Gradients option       PostSCFGGA      .... off
 Hybrid DFT is turned on
   Fraction HF Exchange ScalHFX         ....  0.195728
   Scaling of DF-GGA-X  ScalDFX         ....  0.000000
   Scaling of DF-GGA-C  ScalDFC         ....  1.000000
   Scaling of DF-LDA-C  ScalLDAC        ....  1.000000
   Perturbative correction              ....  0.000000
   Density functional embedding theory  .... OFF
 Long-range corrected/Screened/Range-Separated Hybrid DFT is turned on
   Amount of maximum screened exact exchange              ....  0.804272
   Range separation parameter mu (erf(mu*r12)/r12)        ....  0.250000
 RI-approximation to the Coulomb term is turned on
   Number of AuxJ basis functions       .... 196
   RIJ-COSX (HFX calculated with COS-X)).... on


General Settings:
 Integral files         IntName         .... /beegfs/scratch/ispackman/PFAS_EPR_calcs/benchmark/JChemEd_CF3_radical/CF3_radical_107.5_degrees_IN-PROGRESS/CF3_radical_107.5_degrees
 Hartree-Fock type      HFTyp           .... UHF
 Total Charge           Charge          ....    0
 Multiplicity           Mult            ....    2
 Number of Electrons    NEL             ....   33
 Basis Dimension        Dim             ....  157
 Nuclear Repulsion      ENuc            ....    125.8199534816 Eh

Convergence Acceleration:
 DIIS                   CNVDIIS         .... on
   Start iteration      DIISMaxIt       ....    12
   Startup error        DIISStart       ....  0.200000
   # of expansion vecs  DIISMaxEq       ....     5
   Bias factor          DIISBfac        ....   1.050
   Max. coefficient     DIISMaxC        ....  10.000
 Trust-Rad. Augm. Hess. CNVTRAH         .... auto
   Auto Start mean grad. ratio tolernc. ....  1.125000
   Auto Start start iteration           ....    20
   Auto Start num. interpolation iter.  ....    10
   Max. Number of Micro iterations      ....    16
   Max. Number of Macro iterations      .... Maxiter - #DIIS iter
   Number of Davidson start vectors     ....     2
   Converg. threshold I  (grad. norm)   ....   1.000e-05
   Converg. threshold II (energy diff.) ....   1.000e-08
   Grad. Scal. Fac. for Micro threshold ....   0.100
   Minimum threshold for Micro iter.    ....   0.010
   NR start threshold (gradient norm)   ....   0.001
   Initial trust radius                 ....   0.400
   Minimum AH scaling param. (alpha)    ....   1.000
   Maximum AH scaling param. (alpha)    .... 1000.000
   Orbital update algorithm             .... Taylor
   White noise on init. David. guess    .... on
   Maximum white noise                  ....   0.010
   Quad. conv. algorithm                .... NR
 SOSCF                  CNVSOSCF        .... off
 Level Shifting         CNVShift        .... on
   Level shift para.    LevelShift      ....    0.2500
   Turn off err/grad.   ShiftErr        ....    0.0010
 Zerner damping         CNVZerner       .... off
 Static damping         CNVDamp         .... on
   Fraction old density DampFac         ....    0.7000
   Max. Damping (<1)    DampMax         ....    0.9800
   Min. Damping (>=0)   DampMin         ....    0.0000
   Turn off err/grad.   DampErr         ....    0.1000
 Fernandez-Rico         CNVRico         .... off

SCF Procedure:
 Maximum # iterations   MaxIter         ....   125
 SCF integral mode      SCFMode         .... Direct
   Integral package                     .... SHARK and LIBINT hybrid scheme
 Reset frequency        DirectResetFreq ....    20
 Integral Threshold     Thresh          ....  2.500e-11 Eh
 Primitive CutOff       TCut            ....  2.500e-12 Eh

Convergence Tolerance:
 Convergence Check Mode ConvCheckMode   .... Total+1el-Energy
 Convergence forced     ConvForced      .... 0
 Energy Change          TolE            ....  1.000e-08 Eh
 1-El. energy change                    ....  1.000e-05 Eh
 DIIS Error             TolErr          ....  5.000e-07


Diagonalization of the overlap matrix:
Smallest eigenvalue                        ... 3.281e-04
Time for diagonalization                   ...    0.007 sec
Threshold for overlap eigenvalues          ... 1.000e-08
Number of eigenvalues below threshold      ... 0
Time for construction of square roots      ...    0.027 sec
Total time needed                          ...    0.036 sec

Time for model grid setup =    0.067 sec

------------------------------
INITIAL GUESS: MODEL POTENTIAL
------------------------------
Loading Hartree-Fock densities                     ... done
Calculating cut-offs                               ... done
Initializing the effective Hamiltonian             ... done
Setting up the integral package (SHARK)            ... done
Starting the Coulomb interaction                   ... done (   0.7 sec)
Reading the grid                                   ... done
Mapping shells                                     ... done
Starting the XC term evaluation                    ... done (   0.0 sec)
  promolecular density results
     # of electrons  =     33.000090305
     EX              =    -35.098283136
     EC              =     -1.145853803
     EX+EC           =    -36.244136939
Transforming the Hamiltonian                       ... done (   0.0 sec)
Diagonalizing the Hamiltonian                      ... done (   0.0 sec)
Back transforming the eigenvectors                 ... done (   0.0 sec)
Now organizing SCF variables                       ... done
                      ------------------
                      INITIAL GUESS DONE (   1.0 sec)
                      ------------------
-------------------
DFT GRID GENERATION
-------------------

General Integration Accuracy     IntAcc      ... 4.388
Radial Grid Type                 RadialGrid  ... OptM3 with GC (2021)
Angular Grid (max. ang.)         AngularGrid ... 4 (Lebedev-302)
Angular grid pruning method      GridPruning ... 4 (adaptive)
Weight generation scheme         WeightScheme... Becke
Basis function cutoff            BFCut       ... 1.0000e-11
Integration weight cutoff        WCut        ... 1.0000e-14
Angular grids for H and He will be reduced by one unit
Partially contracted basis set               ... off
Rotationally invariant grid construction     ... off

Total number of grid points                  ...    25786
Total number of batches                      ...      405
Average number of points per batch           ...       63
Average number of grid points per atom       ...     6446
Time for grid setup =    0.166 sec

--------------------
COSX GRID GENERATION
--------------------

GRIDX 1
-------
General Integration Accuracy     IntAcc      ... 3.816
Radial Grid Type                 RadialGrid  ... OptM3 with GC (2021)
Angular Grid (max. ang.)         AngularGrid ... 1 (Lebedev-50)
Angular grid pruning method      GridPruning ... 4 (adaptive)
Weight generation scheme         WeightScheme... Becke
Basis function cutoff            BFCut       ... 1.0000e-11
Integration weight cutoff        WCut        ... 1.0000e-14
Angular grids for H and He will be reduced by one unit
Partially contracted basis set               ... on
Rotationally invariant grid construction     ... off

Total number of grid points                  ...     3270
Total number of batches                      ...       53
Average number of points per batch           ...       61
Average number of grid points per atom       ...      818
UseSFitting                                  ... on

GRIDX 2
-------
General Integration Accuracy     IntAcc      ... 4.020
Radial Grid Type                 RadialGrid  ... OptM3 with GC (2021)
Angular Grid (max. ang.)         AngularGrid ... 2 (Lebedev-110)
Angular grid pruning method      GridPruning ... 4 (adaptive)
Weight generation scheme         WeightScheme... Becke
Basis function cutoff            BFCut       ... 1.0000e-11
Integration weight cutoff        WCut        ... 1.0000e-14
Angular grids for H and He will be reduced by one unit
Partially contracted basis set               ... on
Rotationally invariant grid construction     ... off

Total number of grid points                  ...     9120
Total number of batches                      ...      145
Average number of points per batch           ...       62
Average number of grid points per atom       ...     2280
UseSFitting                                  ... on

GRIDX 3
-------
General Integration Accuracy     IntAcc      ... 4.338
Radial Grid Type                 RadialGrid  ... OptM3 with GC (2021)
Angular Grid (max. ang.)         AngularGrid ... 3 (Lebedev-194)
Angular grid pruning method      GridPruning ... 4 (adaptive)
Weight generation scheme         WeightScheme... Becke
Basis function cutoff            BFCut       ... 1.0000e-11
Integration weight cutoff        WCut        ... 1.0000e-14
Angular grids for H and He will be reduced by one unit
Partially contracted basis set               ... on
Rotationally invariant grid construction     ... off

Total number of grid points                  ...    19672
Total number of batches                      ...      308
Average number of points per batch           ...       63
Average number of grid points per atom       ...     4918
UseSFitting                                  ... on

Time for X-Grid setup             =    0.347 sec

--------------
SCF ITERATIONS
--------------
ITER       Energy         Delta-E        Max-DP      RMS-DP      [F,P]     Damp
               ***  Starting incremental Fock matrix formation  ***
  0   -337.5733245421   0.000000000000 0.01564713  0.00037254  0.0638567 0.7000
  1   -337.5968154299  -0.023490887850 0.00910099  0.00025124  0.0307590 0.7000
                               ***Turning on DIIS***
  2   -337.6068157831  -0.010000353117 0.01933635  0.00048904  0.0160795 0.0000
  3   -337.6249911480  -0.018175364929 0.00626660  0.00014278  0.0145423 0.0000
  4   -337.6277713652  -0.002780217219 0.00500353  0.00009128  0.0037442 0.0000
  5   -337.6280176029  -0.000246237675 0.00321348  0.00005710  0.0023094 0.0000
  6   -337.6280950531  -0.000077450234 0.00373992  0.00005626  0.0009935 0.0000
               *** Restarting incremental Fock matrix formation ***
                                   *** Resetting DIIS ***
  7   -337.6281262436  -0.000031190512 0.00053152  0.00000858  0.0001542 0.0000
  8   -337.6281270075  -0.000000763825 0.00018124  0.00000271  0.0000796 0.0000
  9   -337.6281271825  -0.000000175044 0.00008699  0.00000146  0.0000712 0.0000
 10   -337.6281272422  -0.000000059706 0.00004011  0.00000053  0.0000157 0.0000
 11   -337.6281272453  -0.000000003142 0.00001523  0.00000019  0.0000026 0.0000
                            ***DIIS convergence achieved***

               *****************************************************
               *                     SUCCESS                       *
               *           SCF CONVERGED AFTER  12 CYCLES          *
               *****************************************************

Old exchange energy                            =    -10.539102929 Eh
New exchange energy                            =    -10.539084003 Eh
Exchange energy change after final integration =      0.000018926 Eh
Total energy after final integration           =   -337.628108320 Eh
Final COS-X integration done in                =     0.382 sec

----------------
TOTAL SCF ENERGY
----------------

Total Energy       :         -337.62810832 Eh           -9187.32790 eV

Components:
Nuclear Repulsion  :          125.81995348 Eh            3423.73499 eV
Electronic Energy  :         -463.44806180 Eh          -12611.06290 eV
One Electron Energy:         -718.47269096 Eh          -19550.63586 eV
Two Electron Energy:          255.02462915 Eh            6939.57296 eV
Max COSX asymmetry :            0.00000066 Eh               0.00002 eV

Virial components:
Potential Energy   :         -674.28736088 Eh          -18348.29190 eV
Kinetic Energy     :          336.65925256 Eh            9160.96400 eV
Virial Ratio       :            2.00287785


DFT components:
N(Alpha)           :       16.999875106069 electrons
N(Beta)            :       15.999901520290 electrons
N(Total)           :       32.999776626359 electrons
E(XC)              :      -26.200024585591 Eh       
DFET-embed. en.    :        0.000000000000 Eh       

---------------
SCF CONVERGENCE
---------------

  Last Energy change         ...   -1.1291e-09  Tolerance :   1.0000e-08
  Last MAX-Density change    ...    0.0000e+00  Tolerance :   1.0000e-07
  Last RMS-Density change    ...    0.0000e+00  Tolerance :   5.0000e-09
  Last DIIS Error            ...    8.9330e-07  Tolerance :   5.0000e-07

             **** THE GBW FILE WAS UPDATED (/beegfs/scratch/ispackman/PFAS_EPR_calcs/benchmark/JChemEd_CF3_radical/CF3_radical_107.5_degrees_IN-PROGRESS/CF3_radical_107.5_degrees.gbw) ****
             **** DENSITY /beegfs/scratch/ispackman/PFAS_EPR_calcs/benchmark/JChemEd_CF3_radical/CF3_radical_107.5_degrees_IN-PROGRESS/CF3_radical_107.5_degrees.scfp WAS UPDATED ****
             **** ENERGY FILE WAS UPDATED (/beegfs/scratch/ispackman/PFAS_EPR_calcs/benchmark/JChemEd_CF3_radical/CF3_radical_107.5_degrees_IN-PROGRESS/CF3_radical_107.5_degrees.en.tmp) ****
----------------------
UHF SPIN CONTAMINATION
----------------------

Warning: in a DFT calculation there is little theoretical justification to 
         calculate <S**2> as in Hartree-Fock theory. We will do it anyways
         but you should keep in mind that the values have only limited relevance

Expectation value of <S**2>     :     0.752013
Ideal value S*(S+1) for S=0.5   :     0.750000
Deviation                       :     0.002013

             **** THE GBW FILE WAS UPDATED (/beegfs/scratch/ispackman/PFAS_EPR_calcs/benchmark/JChemEd_CF3_radical/CF3_radical_107.5_degrees_IN-PROGRESS/CF3_radical_107.5_degrees.gbw) ****
             **** DENSITY /beegfs/scratch/ispackman/PFAS_EPR_calcs/benchmark/JChemEd_CF3_radical/CF3_radical_107.5_degrees_IN-PROGRESS/CF3_radical_107.5_degrees.scfp WAS UPDATED ****
----------------
ORBITAL ENERGIES
----------------
                 SPIN UP ORBITALS
  NO   OCC          E(Eh)            E(eV) 
   0   1.0000     -24.848884      -676.1725 
   1   1.0000     -24.848881      -676.1724 
   2   1.0000     -24.848873      -676.1722 
   3   1.0000     -10.544931      -286.9422 
   4   1.0000      -1.475571       -40.1523 
   5   1.0000      -1.378319       -37.5060 
   6   1.0000      -1.378314       -37.5058 
   7   1.0000      -0.839045       -22.8316 
   8   1.0000      -0.731165       -19.8960 
   9   1.0000      -0.731159       -19.8958 
  10   1.0000      -0.703466       -19.1423 
  11   1.0000      -0.607317       -16.5259 
  12   1.0000      -0.607315       -16.5259 
  13   1.0000      -0.564405       -15.3582 
  14   1.0000      -0.564392       -15.3579 
  15   1.0000      -0.540533       -14.7086 
  16   1.0000      -0.397758       -10.8235 
  17   0.0000       0.071610         1.9486 
  18   0.0000       0.105001         2.8572 
  19   0.0000       0.105001         2.8572 
  20   0.0000       0.113138         3.0786 
  21   0.0000       0.160145         4.3578 
  22   0.0000       0.160145         4.3578 
  23   0.0000       0.172611         4.6970 
  24   0.0000       0.172611         4.6970 
  25   0.0000       0.184075         5.0089 
  26   0.0000       0.233357         6.3500 
  27   0.0000       0.233362         6.3501 
  28   0.0000       0.239300         6.5117 
  29   0.0000       0.282542         7.6884 
  30   0.0000       0.329631         8.9697 
  31   0.0000       0.357222         9.7205 
  32   0.0000       0.357231         9.7207 
  33   0.0000       0.378399        10.2968 
  34   0.0000       0.388625        10.5750 
  35   0.0000       0.388628        10.5751 
  36   0.0000       0.408985        11.1291 
  37   0.0000       0.412453        11.2234 
  38   0.0000       0.412454        11.2234 
  39   0.0000       0.487866        13.2755 
  40   0.0000       0.487871        13.2756 
  41   0.0000       0.496078        13.4990 
  42   0.0000       0.574339        15.6286 
  43   0.0000       0.637992        17.3606 
  44   0.0000       0.637992        17.3607 
  45   0.0000       0.682617        18.5750 
  46   0.0000       0.682621        18.5750 
  47   0.0000       0.707950        19.2643 
  48   0.0000       0.707950        19.2643 
  49   0.0000       0.712757        19.3951 
  50   0.0000       0.735081        20.0026 
  51   0.0000       0.754443        20.5294 
  52   0.0000       0.789773        21.4908 
  53   0.0000       0.789779        21.4910 
  54   0.0000       0.872954        23.7543 
  55   0.0000       0.886927        24.1345 
  56   0.0000       0.886931        24.1346 
  57   0.0000       0.943611        25.6770 
  58   0.0000       0.974839        26.5267 
  59   0.0000       0.974841        26.5268 
  60   0.0000       1.068668        29.0799 
  61   0.0000       1.068672        29.0800 
  62   0.0000       1.095421        29.8079 
  63   0.0000       1.159552        31.5530 
  64   0.0000       1.167431        31.7674 
  65   0.0000       1.167432        31.7674 
  66   0.0000       1.230720        33.4896 
  67   0.0000       1.249405        33.9980 
  68   0.0000       1.249421        33.9985 
  69   0.0000       1.309936        35.6452 
  70   0.0000       1.331046        36.2196 
  71   0.0000       1.331056        36.2199 
  72   0.0000       1.447576        39.3906 
  73   0.0000       1.447599        39.3912 
  74   0.0000       1.686216        45.8843 
  75   0.0000       2.125454        57.8365 
  76   0.0000       2.143577        58.3297 
  77   0.0000       2.143585        58.3299 
  78   0.0000       2.189823        59.5881 
  79   0.0000       2.217846        60.3506 
  80   0.0000       2.217846        60.3507 
  81   0.0000       2.243733        61.0551 
  82   0.0000       2.332909        63.4817 
  83   0.0000       2.334848        63.5344 
  84   0.0000       2.334853        63.5346 
  85   0.0000       2.490172        67.7610 
  86   0.0000       2.490192        67.7616 
  87   0.0000       2.618948        71.2652 
  88   0.0000       2.618954        71.2654 
  89   0.0000       2.709725        73.7354 
  90   0.0000       2.840164        77.2848 
  91   0.0000       2.958125        80.4947 
  92   0.0000       2.958134        80.4949 
  93   0.0000       3.159461        85.9733 
  94   0.0000       3.186366        86.7054 
  95   0.0000       3.202098        87.1335 
  96   0.0000       3.202141        87.1347 
  97   0.0000       3.309123        90.0458 
  98   0.0000       3.309148        90.0465 
  99   0.0000       3.373714        91.8034 
 100   0.0000       3.373725        91.8037 
 101   0.0000       3.419721        93.0553 
 102   0.0000       3.592193        97.7485 
 103   0.0000       3.592224        97.7494 
 104   0.0000       3.738549       101.7311 
 105   0.0000       3.887199       105.7761 
 106   0.0000       3.946516       107.3902 
 107   0.0000       3.946588       107.3921 
 108   0.0000       3.961616       107.8011 
 109   0.0000       4.066303       110.6497 
 110   0.0000       4.066319       110.6502 
 111   0.0000       4.166601       113.3790 
 112   0.0000       4.166664       113.3807 
 113   0.0000       4.192852       114.0933 
 114   0.0000       5.290502       143.9619 
 115   0.0000       5.386146       146.5645 
 116   0.0000       5.386224       146.5666 
 117   0.0000       6.906079       187.9240 
 118   0.0000       6.911323       188.0666 
 119   0.0000       6.911342       188.0672 
 120   0.0000       6.912770       188.1060 
 121   0.0000       6.912795       188.1067 
 122   0.0000       6.924056       188.4132 
 123   0.0000       6.924402       188.4226 
 124   0.0000       6.924895       188.4360 
 125   0.0000       6.924937       188.4371 
 126   0.0000       7.072523       192.4531 
 127   0.0000       7.072527       192.4533 
 128   0.0000       7.106713       193.3835 
 129   0.0000       7.234660       196.8651 
 130   0.0000       7.234695       196.8661 
 131   0.0000       7.240376       197.0207 
 132   0.0000       7.463488       203.0918 
 133   0.0000       7.463569       203.0940 
 134   0.0000       7.506758       204.2693 
 135   0.0000       7.671452       208.7508 
 136   0.0000       7.737126       210.5379 
 137   0.0000       7.737179       210.5393 
 138   0.0000       8.503092       231.3809 
 139   0.0000       8.503098       231.3811 
 140   0.0000       8.524869       231.9735 
 141   0.0000       8.579946       233.4722 
 142   0.0000       8.579966       233.4727 
 143   0.0000       8.613227       234.3778 
 144   0.0000       8.824417       240.1246 
 145   0.0000       8.824440       240.1252 
 146   0.0000       8.825107       240.1434 
 147   0.0000       8.915577       242.6052 
 148   0.0000       9.106227       247.7930 
 149   0.0000       9.106291       247.7948 
 150   0.0000       9.222818       250.9656 
 151   0.0000       9.401927       255.8394 
 152   0.0000       9.401945       255.8399 
 153   0.0000      22.787754       620.0863 
 154   0.0000      57.252938      1557.9316 
 155   0.0000      57.281824      1558.7177 
 156   0.0000      57.281832      1558.7179 

                 SPIN DOWN ORBITALS
  NO   OCC          E(Eh)            E(eV) 
   0   1.0000     -24.845921      -676.0919 
   1   1.0000     -24.845917      -676.0918 
   2   1.0000     -24.845903      -676.0914 
   3   1.0000     -10.532091      -286.5928 
   4   1.0000      -1.466018       -39.8924 
   5   1.0000      -1.369673       -37.2707 
   6   1.0000      -1.369667       -37.2705 
   7   1.0000      -0.821016       -22.3410 
   8   1.0000      -0.720664       -19.6103 
   9   1.0000      -0.720658       -19.6101 
  10   1.0000      -0.664349       -18.0778 
  11   1.0000      -0.596014       -16.2184 
  12   1.0000      -0.596011       -16.2183 
  13   1.0000      -0.555892       -15.1266 
  14   1.0000      -0.555880       -15.1263 
  15   1.0000      -0.537242       -14.6191 
  16   0.0000      -0.045468        -1.2373 
  17   0.0000       0.082520         2.2455 
  18   0.0000       0.108006         2.9390 
  19   0.0000       0.108006         2.9390 
  20   0.0000       0.129155         3.5145 
  21   0.0000       0.163173         4.4402 
  22   0.0000       0.163173         4.4402 
  23   0.0000       0.179543         4.8856 
  24   0.0000       0.179543         4.8856 
  25   0.0000       0.196538         5.3481 
  26   0.0000       0.240799         6.5525 
  27   0.0000       0.254008         6.9119 
  28   0.0000       0.254015         6.9121 
  29   0.0000       0.288849         7.8600 
  30   0.0000       0.340015         9.2523 
  31   0.0000       0.378419        10.2973 
  32   0.0000       0.378432        10.2977 
  33   0.0000       0.389709        10.6045 
  34   0.0000       0.390839        10.6353 
  35   0.0000       0.390840        10.6353 
  36   0.0000       0.415195        11.2980 
  37   0.0000       0.415195        11.2980 
  38   0.0000       0.419298        11.4097 
  39   0.0000       0.488399        13.2900 
  40   0.0000       0.488401        13.2901 
  41   0.0000       0.501055        13.6344 
  42   0.0000       0.579340        15.7646 
  43   0.0000       0.640561        17.4306 
  44   0.0000       0.640562        17.4306 
  45   0.0000       0.684387        18.6231 
  46   0.0000       0.684392        18.6232 
  47   0.0000       0.711358        19.3570 
  48   0.0000       0.711361        19.3571 
  49   0.0000       0.713202        19.4072 
  50   0.0000       0.746718        20.3192 
  51   0.0000       0.753689        20.5089 
  52   0.0000       0.791444        21.5363 
  53   0.0000       0.791448        21.5364 
  54   0.0000       0.874641        23.8002 
  55   0.0000       0.890133        24.2218 
  56   0.0000       0.890136        24.2218 
  57   0.0000       0.957083        26.0435 
  58   0.0000       0.983081        26.7510 
  59   0.0000       0.983081        26.7510 
  60   0.0000       1.071972        29.1698 
  61   0.0000       1.071973        29.1699 
  62   0.0000       1.098299        29.8862 
  63   0.0000       1.168815        31.8051 
  64   0.0000       1.168818        31.8052 
  65   0.0000       1.170641        31.8548 
  66   0.0000       1.237675        33.6788 
  67   0.0000       1.260483        34.2995 
  68   0.0000       1.260493        34.2998 
  69   0.0000       1.310215        35.6528 
  70   0.0000       1.337518        36.3957 
  71   0.0000       1.337529        36.3960 
  72   0.0000       1.452301        39.5191 
  73   0.0000       1.452329        39.5199 
  74   0.0000       1.740321        47.3566 
  75   0.0000       2.133740        58.0620 
  76   0.0000       2.150999        58.5317 
  77   0.0000       2.151028        58.5324 
  78   0.0000       2.192652        59.6651 
  79   0.0000       2.225776        60.5664 
  80   0.0000       2.225781        60.5666 
  81   0.0000       2.259123        61.4739 
  82   0.0000       2.334330        63.5204 
  83   0.0000       2.340939        63.7002 
  84   0.0000       2.340945        63.7003 
  85   0.0000       2.500597        68.0447 
  86   0.0000       2.500616        68.0452 
  87   0.0000       2.637557        71.7716 
  88   0.0000       2.637576        71.7721 
  89   0.0000       2.715604        73.8953 
  90   0.0000       2.850008        77.5526 
  91   0.0000       2.962462        80.6127 
  92   0.0000       2.962477        80.6131 
  93   0.0000       3.201331        87.1126 
  94   0.0000       3.212409        87.4141 
  95   0.0000       3.217261        87.5461 
  96   0.0000       3.217307        87.5474 
  97   0.0000       3.335360        90.7598 
  98   0.0000       3.335382        90.7603 
  99   0.0000       3.410725        92.8105 
 100   0.0000       3.410747        92.8111 
 101   0.0000       3.425525        93.2133 
 102   0.0000       3.621308        98.5408 
 103   0.0000       3.621329        98.5414 
 104   0.0000       3.769995       102.5868 
 105   0.0000       3.895891       106.0126 
 106   0.0000       3.964516       107.8800 
 107   0.0000       3.964590       107.8820 
 108   0.0000       3.972881       108.1076 
 109   0.0000       4.079669       111.0134 
 110   0.0000       4.079674       111.0136 
 111   0.0000       4.173325       113.5619 
 112   0.0000       4.173380       113.5635 
 113   0.0000       4.204080       114.3988 
 114   0.0000       5.303497       144.3155 
 115   0.0000       5.397192       146.8651 
 116   0.0000       5.397229       146.8661 
 117   0.0000       6.909259       188.0105 
 118   0.0000       6.915116       188.1699 
 119   0.0000       6.915177       188.1715 
 120   0.0000       6.918597       188.2646 
 121   0.0000       6.918654       188.2662 
 122   0.0000       6.928948       188.5463 
 123   0.0000       6.929124       188.5511 
 124   0.0000       6.929163       188.5521 
 125   0.0000       6.929574       188.5633 
 126   0.0000       7.078703       192.6213 
 127   0.0000       7.078709       192.6215 
 128   0.0000       7.109407       193.4568 
 129   0.0000       7.240204       197.0160 
 130   0.0000       7.240244       197.0171 
 131   0.0000       7.248237       197.2346 
 132   0.0000       7.471674       203.3146 
 133   0.0000       7.471749       203.3166 
 134   0.0000       7.516643       204.5382 
 135   0.0000       7.679973       208.9827 
 136   0.0000       7.743990       210.7247 
 137   0.0000       7.744087       210.7273 
 138   0.0000       8.511385       231.6066 
 139   0.0000       8.511392       231.6067 
 140   0.0000       8.530927       232.1383 
 141   0.0000       8.589898       233.7430 
 142   0.0000       8.589917       233.7435 
 143   0.0000       8.621555       234.6044 
 144   0.0000       8.832153       240.3351 
 145   0.0000       8.833240       240.3647 
 146   0.0000       8.833258       240.3652 
 147   0.0000       8.926006       242.8890 
 148   0.0000       9.111191       247.9281 
 149   0.0000       9.111246       247.9296 
 150   0.0000       9.229410       251.1450 
 151   0.0000       9.408438       256.0166 
 152   0.0000       9.408458       256.0172 
 153   0.0000      22.810609       620.7082 
 154   0.0000      57.255896      1558.0121 
 155   0.0000      57.284756      1558.7975 
 156   0.0000      57.284763      1558.7977 

                    ********************************
                    * MULLIKEN POPULATION ANALYSIS *
                    ********************************

--------------------------------------------
MULLIKEN ATOMIC CHARGES AND SPIN POPULATIONS
--------------------------------------------
   0 C :    0.546867    0.799752
   1 F :   -0.182238    0.066744
   2 F :   -0.182314    0.066751
   3 F :   -0.182315    0.066752
Sum of atomic charges         :   -0.0000000
Sum of atomic spin populations:    1.0000000

-----------------------------------------------------
MULLIKEN REDUCED ORBITAL CHARGES AND SPIN POPULATIONS
-----------------------------------------------------
CHARGE
  0 C s       :     3.189339  s :     3.189339
      pz      :     0.872920  p :     1.918613
      px      :     0.522845
      py      :     0.522847
      dz2     :     0.053203  d :     0.304108
      dxz     :     0.049653
      dyz     :     0.049664
      dx2y2   :     0.075800
      dxy     :     0.075788
      f0      :     0.001840  f :     0.041073
      f+1     :     0.005492
      f-1     :     0.005494
      f+2     :     0.006188
      f-2     :     0.006188
      f+3     :     0.004746
      f-3     :     0.011127
  1 F s       :     3.954003  s :     3.954003
      pz      :     1.797327  p :     5.217153
      px      :     1.498432
      py      :     1.921393
      dz2     :     0.000611  d :     0.010271
      dxz     :     0.005989
      dyz     :     0.000750
      dx2y2   :     0.005051
      dxy     :    -0.002130
      f0      :     0.000082  f :     0.000811
      f+1     :     0.000159
      f-1     :     0.000004
      f+2     :     0.000190
      f-2     :     0.000046
      f+3     :     0.000194
      f-3     :     0.000135
  2 F s       :     3.954061  s :     3.954061
      pz      :     1.797335  p :     5.217176
      px      :     1.815643
      py      :     1.604198
      dz2     :     0.000608  d :     0.010267
      dxz     :     0.002061
      dyz     :     0.004681
      dx2y2   :    -0.000336
      dxy     :     0.003253
      f0      :     0.000082  f :     0.000811
      f+1     :     0.000043
      f-1     :     0.000121
      f+2     :     0.000082
      f-2     :     0.000154
      f+3     :     0.000194
      f-3     :     0.000135
  3 F s       :     3.954061  s :     3.954061
      pz      :     1.797335  p :     5.217176
      px      :     1.815644
      py      :     1.604198
      dz2     :     0.000608  d :     0.010267
      dxz     :     0.002061
      dyz     :     0.004681
      dx2y2   :    -0.000336
      dxy     :     0.003253
      f0      :     0.000082  f :     0.000811
      f+1     :     0.000043
      f-1     :     0.000121
      f+2     :     0.000082
      f-2     :     0.000154
      f+3     :     0.000194
      f-3     :     0.000135

SPIN
  0 C s       :     0.263763  s :     0.263763
      pz      :     0.502160  p :     0.524313
      px      :     0.011065
      py      :     0.011089
      dz2     :     0.017185  d :     0.012443
      dxz     :    -0.001547
      dyz     :    -0.001545
      dx2y2   :    -0.000826
      dxy     :    -0.000823
      f0      :    -0.000181  f :    -0.000767
      f+1     :    -0.000435
      f-1     :    -0.000435
      f+2     :    -0.000147
      f-2     :    -0.000146
      f+3     :     0.000522
      f-3     :     0.000055
  1 F s       :     0.003339  s :     0.003339
      pz      :     0.065019  p :     0.061775
      px      :    -0.002119
      py      :    -0.001124
      dz2     :     0.000168  d :     0.001595
      dxz     :     0.000677
      dyz     :    -0.000006
      dx2y2   :     0.000802
      dxy     :    -0.000045
      f0      :    -0.000003  f :     0.000036
      f+1     :     0.000026
      f-1     :    -0.000000
      f+2     :     0.000002
      f-2     :     0.000002
      f+3     :     0.000009
      f-3     :     0.000001
  2 F s       :     0.003341  s :     0.003341
      pz      :     0.065032  p :     0.061778
      px      :    -0.001378
      py      :    -0.001876
      dz2     :     0.000167  d :     0.001596
      dxz     :     0.000164
      dyz     :     0.000507
      dx2y2   :     0.000167
      dxy     :     0.000591
      f0      :    -0.000003  f :     0.000036
      f+1     :     0.000006
      f-1     :     0.000019
      f+2     :     0.000002
      f-2     :     0.000002
      f+3     :     0.000009
      f-3     :     0.000001
  3 F s       :     0.003342  s :     0.003342
      pz      :     0.065032  p :     0.061778
      px      :    -0.001378
      py      :    -0.001876
      dz2     :     0.000167  d :     0.001596
      dxz     :     0.000164
      dyz     :     0.000507
      dx2y2   :     0.000167
      dxy     :     0.000591
      f0      :    -0.000003  f :     0.000036
      f+1     :     0.000006
      f-1     :     0.000019
      f+2     :     0.000002
      f-2     :     0.000002
      f+3     :     0.000009
      f-3     :     0.000001


                     *******************************
                     * LOEWDIN POPULATION ANALYSIS *
                     *******************************

-------------------------------------------
LOEWDIN ATOMIC CHARGES AND SPIN POPULATIONS
-------------------------------------------
   0 C :   -0.390117    0.617939
   1 F :    0.130038    0.127366
   2 F :    0.130039    0.127347
   3 F :    0.130039    0.127347

----------------------------------------------------
LOEWDIN REDUCED ORBITAL CHARGES AND SPIN POPULATIONS
----------------------------------------------------
CHARGE
  0 C s       :     2.691446  s :     2.691446
      pz      :     0.809342  p :     2.191993
      px      :     0.691325
      py      :     0.691327
      dz2     :     0.174500  d :     1.239550
      dxz     :     0.201462
      dyz     :     0.201466
      dx2y2   :     0.331061
      dxy     :     0.331062
      f0      :     0.015160  f :     0.267128
      f+1     :     0.027071
      f-1     :     0.027072
      f+2     :     0.045851
      f-2     :     0.045851
      f+3     :     0.044361
      f-3     :     0.061762
  1 F s       :     3.560763  s :     3.560763
      pz      :     1.720549  p :     5.097332
      px      :     1.591534
      py      :     1.785249
      dz2     :     0.032551  d :     0.209930
      dxz     :     0.063354
      dyz     :     0.006788
      dx2y2   :     0.043844
      dxy     :     0.063393
      f0      :     0.000180  f :     0.001937
      f+1     :     0.000432
      f-1     :     0.000012
      f+2     :     0.000467
      f-2     :     0.000096
      f+3     :     0.000387
      f-3     :     0.000363
  2 F s       :     3.560762  s :     3.560762
      pz      :     1.720542  p :     5.097335
      px      :     1.736817
      py      :     1.639976
      dz2     :     0.032551  d :     0.209927
      dxz     :     0.020929
      dyz     :     0.049212
      dx2y2   :     0.058504
      dxy     :     0.048731
      f0      :     0.000180  f :     0.001937
      f+1     :     0.000117
      f-1     :     0.000327
      f+2     :     0.000188
      f-2     :     0.000374
      f+3     :     0.000387
      f-3     :     0.000363
  3 F s       :     3.560762  s :     3.560762
      pz      :     1.720542  p :     5.097335
      px      :     1.736817
      py      :     1.639976
      dz2     :     0.032551  d :     0.209927
      dxz     :     0.020929
      dyz     :     0.049212
      dx2y2   :     0.058504
      dxy     :     0.048731
      f0      :     0.000180  f :     0.001937
      f+1     :     0.000117
      f-1     :     0.000327
      f+2     :     0.000188
      f-2     :     0.000374
      f+3     :     0.000387
      f-3     :     0.000363

SPIN
  0 C s       :     0.140486  s :     0.140486
      pz      :     0.408895  p :     0.419901
      px      :     0.005489
      py      :     0.005518
      dz2     :     0.058341  d :     0.049567
      dxz     :    -0.003763
      dyz     :    -0.003762
      dx2y2   :    -0.000624
      dxy     :    -0.000625
      f0      :    -0.000019  f :     0.007984
      f+1     :    -0.000227
      f-1     :    -0.000227
      f+2     :    -0.000202
      f-2     :    -0.000201
      f+3     :     0.008856
      f-3     :     0.000003
  1 F s       :     0.015220  s :     0.015220
      pz      :     0.073185  p :     0.078759
      px      :     0.006267
      py      :    -0.000693
      dz2     :     0.007105  d :     0.033017
      dxz     :     0.024769
      dyz     :    -0.000133
      dx2y2   :     0.001260
      dxy     :     0.000016
      f0      :     0.000010  f :     0.000370
      f+1     :     0.000235
      f-1     :     0.000000
      f+2     :     0.000103
      f-2     :     0.000001
      f+3     :     0.000017
      f-3     :     0.000003
  2 F s       :     0.015219  s :     0.015219
      pz      :     0.073189  p :     0.078742
      px      :     0.001041
      py      :     0.004512
      dz2     :     0.007105  d :     0.033016
      dxz     :     0.006092
      dyz     :     0.018543
      dx2y2   :     0.000327
      dxy     :     0.000949
      f0      :     0.000010  f :     0.000370
      f+1     :     0.000059
      f-1     :     0.000176
      f+2     :     0.000027
      f-2     :     0.000077
      f+3     :     0.000017
      f-3     :     0.000003
  3 F s       :     0.015219  s :     0.015219
      pz      :     0.073189  p :     0.078742
      px      :     0.001041
      py      :     0.004512
      dz2     :     0.007105  d :     0.033016
      dxz     :     0.006092
      dyz     :     0.018543
      dx2y2   :     0.000327
      dxy     :     0.000949
      f0      :     0.000010  f :     0.000370
      f+1     :     0.000059
      f-1     :     0.000176
      f+2     :     0.000027
      f-2     :     0.000077
      f+3     :     0.000017
      f-3     :     0.000003


                      *****************************
                      * MAYER POPULATION ANALYSIS *
                      *****************************

  NA   - Mulliken gross atomic population
  ZA   - Total nuclear charge
  QA   - Mulliken gross atomic charge
  VA   - Mayer's total valence
  BVA  - Mayer's bonded valence
  FA   - Mayer's free valence

  ATOM       NA         ZA         QA         VA         BVA        FA
  0 C      5.4531     6.0000     0.5469     3.8031     3.1599     0.6432
  1 F      9.1822     9.0000    -0.1822     1.0661     1.0624     0.0037
  2 F      9.1823     9.0000    -0.1823     1.0660     1.0623     0.0037
  3 F      9.1823     9.0000    -0.1823     1.0660     1.0623     0.0037

  Mayer bond orders larger than 0.100000
B(  0-C ,  1-F ) :   1.0533 B(  0-C ,  2-F ) :   1.0533 B(  0-C ,  3-F ) :   1.0533 


-------
TIMINGS
-------

Total SCF time: 0 days 0 hours 0 min 13 sec 

Total time                  ....      13.552 sec
Sum of individual times     ....      12.545 sec  ( 92.6%)

Fock matrix formation       ....      10.136 sec  ( 74.8%)
  Split-RI-J                ....       2.887 sec  ( 28.5% of F)
  Chain of spheres X        ....       2.820 sec  ( 27.8% of F)
  XC integration            ....       1.810 sec  ( 17.9% of F)
    Basis function eval.    ....       0.114 sec  (  6.3% of XC)
    Density eval.           ....       0.147 sec  (  8.1% of XC)
    XC-Functional eval.     ....       0.063 sec  (  3.5% of XC)
    XC-Potential eval.      ....       0.301 sec  ( 16.6% of XC)
Diagonalization             ....       0.329 sec  (  2.4%)
Density matrix formation    ....       0.013 sec  (  0.1%)
Population analysis         ....       0.121 sec  (  0.9%)
Initial guess               ....       0.913 sec  (  6.7%)
Orbital Transformation      ....       0.000 sec  (  0.0%)
Orbital Orthonormalization  ....       0.000 sec  (  0.0%)
DIIS solution               ....       0.451 sec  (  3.3%)
Grid generation             ....       0.581 sec  (  4.3%)

Maximum memory used throughout the entire SCF-calculation: 63.2 MB


-------------------------------------------------------------------------------
                          DFT DISPERSION CORRECTION                            
                                                                               
                              DFTD3 V3.1  Rev 1                                
                              USING zero damping                               
-------------------------------------------------------------------------------
The omegaB97X-D3 functional is recognized. Fit by Chai et al.
Active option DFTDOPT                   ...         3   

molecular C6(AA) [au] = 165.696189 


            DFT-D V3
 parameters
 s6 scaling factor         :     1.0000 
 rs6 scaling factor        :     1.2810 
 s8 scaling factor         :     1.0000 
 rs8 scaling factor        :     1.0940 
 Damping factor alpha6     :    14.0000 
 Damping factor alpha8     :    16.0000 
 ad hoc parameters k1-k3   :    16.0000     1.3333    -4.0000 

 Edisp/kcal,au: -0.043252517052  -0.000068927266 
 E6   /kcal   :  -0.005513191 
 E8   /kcal   :  -0.037739326 
 % E8         :  87.253478591 

-------------------------   ----------------
Dispersion correction           -0.000068927
-------------------------   ----------------


-------------------------   --------------------
FINAL SINGLE POINT ENERGY      -337.628177247743
-------------------------   --------------------



           ************************************************************
           *        Program running with 18 parallel MPI-processes    *
           *              working on a common directory               *
           ************************************************************
------------------------------------------------------------------------------
                         ORCA SCF GRADIENT CALCULATION
------------------------------------------------------------------------------

 ... reading COSX grid (gridx3)
Gradient of the Kohn-Sham DFT energy:
Kohn-Sham wavefunction type      ... UKS
Hartree-Fock exchange scaling    ...    0.196
Number of operators              ...    2
Number of atoms                  ...    4
Basis set dimensions             ...  157
Integral neglect threshold       ... 2.5e-11
Integral primitive cutoff        ... 2.5e-12
SHARK Integral package           ... ON

Nuc. rep. gradient       (SHARK) ... done (  0.0 sec)
HCore & Overlap gradient (SHARK) ... done (  0.0 sec)
RI-J gradient            (SHARK) ... done (  0.5 sec)
COSX-gradient                    ... done (  0.4 sec)
Exchange-correlation gradient    ... done
Dispersion correction            ... done

------------------
CARTESIAN GRADIENT
------------------

WARNING: THERE ARE 3 CONSTRAINED CARTESIAN COORDINATES
   1   C   :    0.000059567    0.000000016    0.042787068
   2   F   :   -0.014301260    0.000000058   -0.014085590
   3   F   :    0.007468009   -0.012543191   -0.014475307
   4   F   :    0.007468002    0.012542938   -0.014475647

Difference to translation invariance:
           :    0.0006943183   -0.0000001778   -0.0002494763

Difference to rotation invariance:
           :    0.0000005057   -0.0014771587    0.0000004125

Norm of the cartesian gradient     ...    0.0554882393
RMS gradient                       ...    0.0160180750
MAX gradient                       ...    0.0427870684

-------
TIMINGS
-------

Total SCF gradient time            ...        1.554 sec

One electron gradient       ....       0.013 sec  (  0.8%)
RI-J Coulomb gradient       ....       0.549 sec  ( 35.3%)
COSX gradient               ....       0.435 sec  ( 28.0%)
XC gradient                 ....       0.169 sec  ( 10.9%)

Maximum memory used throughout the entire SCFGRAD-calculation: 37.2 MB
------------------------------------------------------------------------------
                         ORCA GEOMETRY RELAXATION STEP
------------------------------------------------------------------------------

Reading the OPT-File                    .... done
Getting information on internals        .... done
Copying old internal coords+grads       .... done
Making the new internal coordinates     .... (new redundants).... done
Validating the new internal coordinates .... (new redundants).... done
Calculating the B-matrix                .... done
Calculating the G,G- and P matrices     .... done
Transforming gradient to internals      .... done
Projecting the internal gradient        .... done
Number of atoms                         ....   4
Number of internal coordinates          ....   7
Current Energy                          ....  -337.628177248 Eh
Current gradient norm                   ....     0.055488239 Eh/bohr
Maximum allowed component of the step   ....  0.300
Current trust radius                    ....  0.300
Evaluating the initial hessian          ....  (Almloef) done
Projecting the Hessian                  .... done
Forming the augmented Hessian           .... done
Diagonalizing the augmented Hessian     .... done
Last element of RFO vector              ....  0.999780268
Lowest eigenvalues of augmented Hessian:
 -0.000301219  0.684895726  0.684895726  0.685196945 1000.000000000
Length of the computed step             ....  0.020966863
The final length of the internal step   ....  0.020966863
Converting the step to cartesian space:
 Initial RMS(Int)=    0.0079247295
Transforming coordinates:
 Iter   0:  RMS(Cart)=    0.0057431377 RMS(Int)=    0.0079247295
 Iter   1:  RMS(Cart)=    0.0000000000 RMS(Int)=    0.0000000000
Imposing constraints:
 Iter   0:  RMS(Cart)=    0.0000000013 RMS(Int)=    0.0000000026
CONVERGED
done
Storing new coordinates                 .... done

                                .--------------------.
          ----------------------|Geometry convergence|-------------------------
          Item                value                   Tolerance       Converged
          ---------------------------------------------------------------------
          RMS gradient        0.0054300004            0.0001000000      NO
          MAX gradient        0.0082948186            0.0003000000      NO
          RMS step            0.0079247295            0.0020000000      NO
          MAX step            0.0121057437            0.0040000000      NO
          ........................................................
          Max(Bonds)      0.0064      Max(Angles)    0.00
          Max(Dihed)        0.00      Max(Improp)    0.00
          ---------------------------------------------------------------------

The optimization has not yet converged - more geometry cycles are needed


    ---------------------------------------------------------------------------
                         Redundant Internal Coordinates
                            (Angstroem and degrees)

        Definition                    Value    dE/dq     Step     New-Value
    ----------------------------------------------------------------------------
     1. B(F   1,C   0)                1.3150 -0.008294  0.0064    1.3214   
     2. B(F   2,C   0)                1.3150 -0.008295  0.0064    1.3214   
     3. B(F   3,C   0)                1.3150 -0.008295  0.0064    1.3214   
     4. A(F   2,C   0,F   3)          107.50 -0.029613    0.00    107.50 C 
     5. A(F   1,C   0,F   2)          107.50 -0.011657   -0.00    107.50 C 
     6. A(F   1,C   0,F   3)          107.50 -0.011657   -0.00    107.50 C 
     7. I(F   1,F   3,F   2,C   0)     59.43  0.033762   -0.00     59.43   
    ----------------------------------------------------------------------------

         *************************************************************
         *                GEOMETRY OPTIMIZATION CYCLE   2            *
         *************************************************************
---------------------------------
CARTESIAN COORDINATES (ANGSTROEM)
---------------------------------
  C      0.000000   -0.000000    0.001751
  F      1.230496   -0.000000   -0.479906
  F     -0.615248    1.065641   -0.479906
  F     -0.615248   -1.065641   -0.479906

----------------------------
CARTESIAN COORDINATES (A.U.)
----------------------------
  NO LB      ZA    FRAG     MASS         X           Y           Z
   0 C     6.0000    0    12.011    0.000000   -0.000000    0.003309
   1 F     9.0000    0    18.998    2.325300   -0.000000   -0.906891
   2 F     9.0000    0    18.998   -1.162650    2.013769   -0.906891
   3 F     9.0000    0    18.998   -1.162650   -2.013769   -0.906891

--------------------------------
INTERNAL COORDINATES (ANGSTROEM)
--------------------------------
 C      0   0   0     0.000000000000     0.00000000     0.00000000
 F      1   0   0     1.321405397956     0.00000000     0.00000000
 F      1   2   0     1.321406083637   107.50000006     0.00000000
 F      1   2   3     1.321405944678   107.50000006   115.46840378

---------------------------
INTERNAL COORDINATES (A.U.)
---------------------------
 C      0   0   0     0.000000000000     0.00000000     0.00000000
 F      1   0   0     2.497094314022     0.00000000     0.00000000
 F      1   2   0     2.497095609771   107.50000006     0.00000000
 F      1   2   3     2.497095347177   107.50000006   115.46840378



           ************************************************************
           *        Program running with 18 parallel MPI-processes    *
           *              working on a common directory               *
           ************************************************************
------------------------------------------------------------------------------
                   ___                                                        
                  /   \      - P O W E R E D   B Y -                         
                 /     \                                                     
                 |  |  |   _    _      __       _____    __    __             
                 |  |  |  | |  | |    /  \     |  _  \  |  |  /  |          
                  \  \/   | |  | |   /    \    | | | |  |  | /  /          
                 / \  \   | |__| |  /  /\  \   | |_| |  |  |/  /          
                |  |  |   |  __  | /  /__\  \  |    /   |      \           
                |  |  |   | |  | | |   __   |  |    \   |  |\   \          
                \     /   | |  | | |  |  |  |  | |\  \  |  | \   \       
                 \___/    |_|  |_| |__|  |__|  |_| \__\ |__|  \__/        
                                                                              
                      - O R C A' S   B I G   F R I E N D -                    
                                      &                                       
                       - I N T E G R A L  F E E D E R -                       
                                                                              
 v1 FN, 2020, v2 2021                                                         
------------------------------------------------------------------------------


Reading SHARK input file /beegfs/scratch/ispackman/PFAS_EPR_calcs/benchmark/JChemEd_CF3_radical/CF3_radical_107.5_degrees_IN-PROGRESS/CF3_radical_107.5_degrees.SHARKINP.tmp ... ok
----------------------
SHARK INTEGRAL PACKAGE
----------------------

Number of atoms                             ...      4
Number of basis functions                   ...    157
Number of shells                            ...     55
Maximum angular momentum                    ...      3
Integral batch strategy                     ... SHARK/LIBINT Hybrid
RI-J (if used) integral strategy            ... SPLIT-RIJ (Revised 2003 algorithm where possible)
Printlevel                                  ...      1
Contraction scheme used                     ... SEGMENTED contraction
Coulomb Range Separation                    ... NOT USED
Exchange Range Separation                   ... Long Range
   Mu parameter                             ...  0.250000
   Scaling (regular/separated)              ...  0.195728  0.804272
Finite Nucleus Model                        ... NOT USED
Auxiliary Coulomb fitting basis             ... AVAILABLE
   # of basis functions in Aux-J            ...    196
   # of shells in Aux-J                     ...     60
   Maximum angular momentum in Aux-J        ...      4
Auxiliary J/K fitting basis                 ... NOT available
Auxiliary Correlation fitting basis         ... NOT available
Auxiliary 'external' fitting basis          ... NOT available
Integral threshold                          ...     2.500000e-11
Primitive cut-off                           ...     2.500000e-12
Primitive pair pre-selection threshold      ...     2.500000e-12

Calculating pre-screening integrals         ... done (  0.0 sec) Dimension = 55
Organizing shell pair data                  ... done (  0.0 sec)
Shell pair information
Total number of shell pairs                 ...      1540
Shell pairs after pre-screening             ...      1504
Total number of primitive shell pairs       ...      4274
Primitive shell pairs kept                  ...      3545
          la=0 lb=0:    282 shell pairs
          la=1 lb=0:    354 shell pairs
          la=1 lb=1:    120 shell pairs
          la=2 lb=0:    276 shell pairs
          la=2 lb=1:    180 shell pairs
          la=2 lb=2:     78 shell pairs
          la=3 lb=0:     96 shell pairs
          la=3 lb=1:     60 shell pairs
          la=3 lb=2:     48 shell pairs
          la=3 lb=3:     10 shell pairs

Calculating one electron integrals          ... done (  0.0 sec)
Calculating RI/J V-Matrix + Cholesky decomp.... done (  0.0 sec)
Calculating Nuclear repulsion               ... done (  0.0 sec) ENN=    125.210013216558 Eh

SHARK setup successfully completed in   0.3 seconds

Maximum memory used throughout the entire GTOINT-calculation: 15.2 MB


           ************************************************************
           *        Program running with 18 parallel MPI-processes    *
           *              working on a common directory               *
           ************************************************************

Diagonalization of the overlap matrix:
Smallest eigenvalue                        ... 3.411e-04
Time for diagonalization                   ...    0.008 sec
Threshold for overlap eigenvalues          ... 1.000e-08
Number of eigenvalues below threshold      ... 0
Time for construction of square roots      ...    0.017 sec
Total time needed                          ...    0.026 sec

-------------------
DFT GRID GENERATION
-------------------

General Integration Accuracy     IntAcc      ... 4.388
Radial Grid Type                 RadialGrid  ... OptM3 with GC (2021)
Angular Grid (max. ang.)         AngularGrid ... 4 (Lebedev-302)
Angular grid pruning method      GridPruning ... 4 (adaptive)
Weight generation scheme         WeightScheme... Becke
Basis function cutoff            BFCut       ... 1.0000e-11
Integration weight cutoff        WCut        ... 1.0000e-14
Angular grids for H and He will be reduced by one unit
Partially contracted basis set               ... off
Rotationally invariant grid construction     ... off

Total number of grid points                  ...    25786
Total number of batches                      ...      405
Average number of points per batch           ...       63
Average number of grid points per atom       ...     6446
Time for grid setup =    0.162 sec

--------------------
COSX GRID GENERATION
--------------------

GRIDX 1
-------
General Integration Accuracy     IntAcc      ... 3.816
Radial Grid Type                 RadialGrid  ... OptM3 with GC (2021)
Angular Grid (max. ang.)         AngularGrid ... 1 (Lebedev-50)
Angular grid pruning method      GridPruning ... 4 (adaptive)
Weight generation scheme         WeightScheme... Becke
Basis function cutoff            BFCut       ... 1.0000e-11
Integration weight cutoff        WCut        ... 1.0000e-14
Angular grids for H and He will be reduced by one unit
Partially contracted basis set               ... on
Rotationally invariant grid construction     ... off

Total number of grid points                  ...     3270
Total number of batches                      ...       53
Average number of points per batch           ...       61
Average number of grid points per atom       ...      818
UseSFitting                                  ... on

GRIDX 2
-------
General Integration Accuracy     IntAcc      ... 4.020
Radial Grid Type                 RadialGrid  ... OptM3 with GC (2021)
Angular Grid (max. ang.)         AngularGrid ... 2 (Lebedev-110)
Angular grid pruning method      GridPruning ... 4 (adaptive)
Weight generation scheme         WeightScheme... Becke
Basis function cutoff            BFCut       ... 1.0000e-11
Integration weight cutoff        WCut        ... 1.0000e-14
Angular grids for H and He will be reduced by one unit
Partially contracted basis set               ... on
Rotationally invariant grid construction     ... off

Total number of grid points                  ...     9120
Total number of batches                      ...      145
Average number of points per batch           ...       62
Average number of grid points per atom       ...     2280
UseSFitting                                  ... on

GRIDX 3
-------
General Integration Accuracy     IntAcc      ... 4.338
Radial Grid Type                 RadialGrid  ... OptM3 with GC (2021)
Angular Grid (max. ang.)         AngularGrid ... 3 (Lebedev-194)
Angular grid pruning method      GridPruning ... 4 (adaptive)
Weight generation scheme         WeightScheme... Becke
Basis function cutoff            BFCut       ... 1.0000e-11
Integration weight cutoff        WCut        ... 1.0000e-14
Angular grids for H and He will be reduced by one unit
Partially contracted basis set               ... on
Rotationally invariant grid construction     ... off

Total number of grid points                  ...    19674
Total number of batches                      ...      308
Average number of points per batch           ...       63
Average number of grid points per atom       ...     4918
UseSFitting                                  ... on

Time for X-Grid setup             =    0.342 sec

--------------
[...]
  VA   - Mayer's total valence
  BVA  - Mayer's bonded valence
  FA   - Mayer's free valence

  ATOM       NA         ZA         QA         VA         BVA        FA
  0 C      5.4594     6.0000     0.5406     3.8014     3.1598     0.6416
  1 F      9.1801     9.0000    -0.1801     1.0681     1.0642     0.0039
  2 F      9.1802     9.0000    -0.1802     1.0679     1.0641     0.0038
  3 F      9.1802     9.0000    -0.1802     1.0679     1.0641     0.0038

  Mayer bond orders larger than 0.100000
B(  0-C ,  1-F ) :   1.0533 B(  0-C ,  2-F ) :   1.0532 B(  0-C ,  3-F ) :   1.0532 


-------
TIMINGS
-------

Total SCF time: 0 days 0 hours 0 min 5 sec 

Total time                  ....       5.317 sec
Sum of individual times     ....       4.567 sec  ( 85.9%)

Fock matrix formation       ....       3.657 sec  ( 68.8%)
  Split-RI-J                ....       0.531 sec  ( 14.5% of F)
  Chain of spheres X        ....       1.525 sec  ( 41.7% of F)
  XC integration            ....       0.665 sec  ( 18.2% of F)
    Basis function eval.    ....       0.044 sec  (  6.6% of XC)
    Density eval.           ....       0.055 sec  (  8.3% of XC)
    XC-Functional eval.     ....       0.023 sec  (  3.4% of XC)
    XC-Potential eval.      ....       0.081 sec  ( 12.2% of XC)
Diagonalization             ....       0.135 sec  (  2.5%)
Density matrix formation    ....       0.007 sec  (  0.1%)
Population analysis         ....       0.148 sec  (  2.8%)
Initial guess               ....       0.017 sec  (  0.3%)
Orbital Transformation      ....       0.000 sec  (  0.0%)
Orbital Orthonormalization  ....       0.009 sec  (  0.2%)
DIIS solution               ....       0.098 sec  (  1.8%)
Grid generation             ....       0.505 sec  (  9.5%)

Maximum memory used throughout the entire SCF-calculation: 63.1 MB


-------------------------------------------------------------------------------
                          DFT DISPERSION CORRECTION                            
                                                                               
                              DFTD3 V3.1  Rev 1                                
                              USING zero damping                               
-------------------------------------------------------------------------------
The omegaB97X-D3 functional is recognized. Fit by Chai et al.
Active option DFTDOPT                   ...         3   

molecular C6(AA) [au] = 165.715193 


            DFT-D V3
 parameters
 s6 scaling factor         :     1.0000 
 rs6 scaling factor        :     1.2810 
 s8 scaling factor         :     1.0000 
 rs8 scaling factor        :     1.0940 
 Damping factor alpha6     :    14.0000 
 Damping factor alpha8     :    16.0000 
 ad hoc parameters k1-k3   :    16.0000     1.3333    -4.0000 

 Edisp/kcal,au: -0.045295743713  -0.000072183355 
 E6   /kcal   :  -0.005778162 
 E8   /kcal   :  -0.039517582 
 % E8         :  87.243476931 

-------------------------   ----------------
Dispersion correction           -0.000072183
-------------------------   ----------------


-------------------------   --------------------
FINAL SINGLE POINT ENERGY      -337.628362377102
-------------------------   --------------------

                                *** OPTIMIZATION RUN DONE ***

                            ***************************************
                            *     ORCA property calculations      *
                            ***************************************

                                    ---------------------
                                    Active property flags
                                    ---------------------
   (+) Dipole Moment


------------------------------------------------------------------------------
                       ORCA ELECTRIC PROPERTIES CALCULATION
------------------------------------------------------------------------------

Dipole Moment Calculation                       ... on
Quadrupole Moment Calculation                   ... off
Polarizability Calculation                      ... off
GBWName                                         ... /beegfs/scratch/ispackman/PFAS_EPR_calcs/benchmark/JChemEd_CF3_radical/CF3_radical_107.5_degrees_IN-PROGRESS/CF3_radical_107.5_degrees.gbw
Electron density                                ... /beegfs/scratch/ispackman/PFAS_EPR_calcs/benchmark/JChemEd_CF3_radical/CF3_radical_107.5_degrees_IN-PROGRESS/CF3_radical_107.5_degrees.scfp
The origin for moment calculation is the CENTER OF MASS  = (-0.000000, -0.000000 -0.748531)

-------------
DIPOLE MOMENT
-------------
                                X             Y             Z
Electronic contribution:     -0.00002       0.00000      -0.01538
Nuclear contribution   :      0.00000       0.00000       0.23327
                        -----------------------------------------
Total Dipole Moment    :     -0.00002       0.00000       0.21789
                        -----------------------------------------
Magnitude (a.u.)       :      0.21789
Magnitude (Debye)      :      0.55383



--------------------
Rotational spectrum 
--------------------
 
Rotational constants in cm-1:     0.370164     0.370164     0.194954 
Rotational constants in MHz : 11097.247919 11097.229026  5844.576567 

 Dipole components along the rotational axes: 
x,y,z [a.u.] :    -0.000000    -0.000023     0.217889 
x,y,z [Debye]:    -0.000000    -0.000059     0.553830 

 


           ************************************************************
           *        Program running with 18 parallel MPI-processes    *
           *              working on a common directory               *
           ************************************************************

-------------------------------------------------------------------------------
                               ORCA SCF HESSIAN
-------------------------------------------------------------------------------

                   --------- SHARK INITIALIZATION DONE ---------

Hessian of the Kohn-Sham DFT energy:
Kohn-Sham wavefunction type                      ... UKS
Hartree-Fock exchange scaling                    ...    0.196
Number of operators                              ...    2
Number of atoms                                  ...    4
Basis set dimensions                             ...  157
Integral neglect threshold                       ... 2.5e-11
Integral primitive cutoff                        ... 2.5e-12

Setting up DFT Hessian calculations              ... 

HESS GRID
---------

General Integration Accuracy     IntAcc      ... 4.629
Radial Grid Type                 RadialGrid  ... OptM3 with GC (2021)
Angular Grid (max. ang.)         AngularGrid ... 5 (Lebedev-434)
Angular grid pruning method      GridPruning ... 4 (adaptive)
Weight generation scheme         WeightScheme... Becke
Basis function cutoff            BFCut       ... 1.0000e-11
Integration weight cutoff        WCut        ... 1.0000e-14
Angular grids for H and He will be reduced by one unit
Partially contracted basis set               ... off
Rotationally invariant grid construction     ... off

Total number of grid points                  ...    39963
Total number of batches                      ...      627
Average number of points per batch           ...       63
Average number of grid points per atom       ...     9991

Building densities                               ... done   (      0.0 sec)
Calculating rho(r) on the grid                   ... done   (      0.1 sec)
Building xc-kernel on the grid                   ... done   (      0.1 sec)
                                                     done   (      0.6 sec)

Nuclear repulsion Hessian  (SHARK)               ... done   (      0.0 sec)

----------------------------------------------
Forming right-hand sides of CP-SCF equations     ...
----------------------------------------------
One electron integral derivatives  (SHARK)       ... done   (      0.0 sec)
Transforming the overlap derivative matrices     ... done   (      0.0 sec)
Making the Q(x) pseudodensities                  ... done   (      0.0 sec)
Adding the E*S(x)*S(y) terms to the Hessian      ... done   (      0.0 sec)
Calculating energy weighted overlap derivatives  ... done   (      0.0 sec)
Two electron integral derivatives (SHARK-RI)     ... done   (      2.4 sec)
Exchange-correlation integral derivatives        ... done   (      2.3 sec)
tr(F(y)Q(x)) contribution to the Hessian         ... done   (      0.0 sec)
Response fock operator R(S(x)) (SHARK-RIJCOSX)   ... done   (      0.9 sec)
XC Response fock operator R(S(x))                ... done   (      0.5 sec)
tr(F(y)S(x)) contribution to the Hessian         ... done   (      0.0 sec)
Transforming and finalizing RHSs                 ... done   (      0.0 sec)

----------------------------------------------
Solving the CP-SCF equations (RIJCOSX)           ...
----------------------------------------------
     CP-SCF ITERATION   0:   1.6003e-01 (   0.4 sec   0/ 12 done)
     CP-SCF ITERATION   1:   4.3667e-02 (   0.5 sec   0/ 12 done)
     CP-SCF ITERATION   2:   1.3814e-02 (   0.5 sec   0/ 12 done)
     CP-SCF ITERATION   3:   3.7624e-03 (   0.4 sec   0/ 12 done)
     CP-SCF ITERATION   4:   1.2317e-03 (   0.4 sec   0/ 12 done)
     CP-SCF ITERATION   5:   5.1813e-04 (   0.5 sec   1/ 12 done)
     CP-SCF ITERATION   6:   1.4251e-04 (   0.4 sec   9/ 12 done)
     CP-SCF ITERATION   7:   3.0747e-05 (   0.4 sec  12/ 12 done)
                    *** THE CP-SCF HAS CONVERGED ***

                                                 ... done   (      3.9 sec)
Forming perturbed density Hessian contributions  ... done   (      0.0 sec)
2nd integral derivative contribs (SHARK-RI)      ... done   (      6.5 sec)
Exchange-correlation Hessian                     ... done   (      0.9 sec)
Dispersion correction in the Hessian             ... done   (      0.1 sec)
Dipole derivatives                               ... (center of mass: -0.000000, -0.000000 -0.748531)done   (      0.1 sec)

Total SCF Hessian time: 0 days 0 hours 0 min 18 sec 

Writing the Hessian file to the disk             ... done


Maximum memory used throughout the entire SCFHESS-calculation: 142.9 MB

-----------------------
VIBRATIONAL FREQUENCIES
-----------------------

Scaling factor for frequencies =  1.000000000  (already applied!)

   0:         0.00 cm**-1
   1:         0.00 cm**-1
   2:         0.00 cm**-1
   3:         0.00 cm**-1
   4:         0.00 cm**-1
   5:         0.00 cm**-1
   6:       535.53 cm**-1
   7:       535.81 cm**-1
   8:       734.72 cm**-1
   9:      1118.16 cm**-1
  10:      1209.44 cm**-1
  11:      1209.80 cm**-1


------------
NORMAL MODES
------------

These modes are the Cartesian displacements weighted by the diagonal matrix
M(i,i)=1/sqrt(m[i]) where m[i] is the mass of the displaced atom
Thus, these vectors are normalized but *not* orthogonal

                  0          1          2          3          4          5    
      0       0.000000   0.000000   0.000000   0.000000   0.000000   0.000000
      1       0.000000   0.000000   0.000000   0.000000   0.000000   0.000000
      2       0.000000   0.000000   0.000000   0.000000   0.000000   0.000000
      3       0.000000   0.000000   0.000000   0.000000   0.000000   0.000000
      4       0.000000   0.000000   0.000000   0.000000   0.000000   0.000000
      5       0.000000   0.000000   0.000000   0.000000   0.000000   0.000000
      6       0.000000   0.000000   0.000000   0.000000   0.000000   0.000000
      7       0.000000   0.000000   0.000000   0.000000   0.000000   0.000000
      8       0.000000   0.000000   0.000000   0.000000   0.000000   0.000000
      9       0.000000   0.000000   0.000000   0.000000   0.000000   0.000000
     10       0.000000   0.000000   0.000000   0.000000   0.000000   0.000000
     11       0.000000   0.000000   0.000000   0.000000   0.000000   0.000000
                  6          7          8          9         10         11    
      0       0.000094  -0.318827  -0.000251   0.000532   0.894748   0.000337
      1       0.318915   0.000094  -0.000000  -0.000002   0.000337  -0.894731
      2      -0.000000   0.001130  -0.588585  -0.825511   0.000624   0.000002
      3       0.000140  -0.475307   0.449169  -0.275803  -0.329994  -0.000124
      4      -0.608993  -0.000179  -0.000000   0.000000  -0.000018   0.047007
      5       0.000016  -0.052839   0.123998   0.174057   0.147486   0.000055
      6      -0.469298   0.338301  -0.224506   0.137733  -0.117797  -0.122631
      7       0.203545   0.468674   0.390418  -0.238460   0.122517   0.259379
      8       0.045559   0.026076   0.124060   0.173925  -0.073892  -0.127866
      9       0.469099   0.338577  -0.224505   0.137733  -0.117890   0.122542
     10       0.203822  -0.468554  -0.390418   0.238461  -0.122713   0.259286
     11      -0.045574   0.026049   0.124060   0.173926  -0.073989   0.127810


-----------
IR SPECTRUM
-----------

 Mode   freq       eps      Int      T**2         TX        TY        TZ
       cm**-1   L/(mol*cm) km/mol    a.u.
----------------------------------------------------------------------------
  6:    535.53   0.000296    1.50  0.000172  ( 0.000004  0.013132 -0.000000)
  7:    535.81   0.000295    1.49  0.000172  (-0.013115  0.000004  0.000069)
  8:    734.72   0.002376   12.01  0.001009  ( 0.000024 -0.000000 -0.031771)
  9:   1118.16   0.008849   44.72  0.002470  ( 0.000083 -0.000000 -0.049697)
 10:   1209.44   0.068803  347.70  0.017753  ( 0.133239  0.000050  0.000077)
 11:   1209.80   0.068737  347.37  0.017730  ( 0.000050 -0.133156  0.000000)

* The epsilon (eps) is given for a Dirac delta lineshape.
** The dipole moment derivative (T) already includes vibrational overlap.

The first frequency considered to be a vibration is 6
The total number of vibrations considered is 6


--------------------------
THERMOCHEMISTRY AT 298.15K
--------------------------

Temperature         ... 298.15 K
Pressure            ... 1.00 atm
Total Mass          ... 69.00 AMU

Throughout the following assumptions are being made:
  (1) The electronic state is orbitally nondegenerate
      but the spin degeneracy is treated
  (2) There are no thermally accessible electronically excited states
  (3) Hindered rotations indicated by low frequency modes are not
      treated as such but are treated as vibrations and this may
      cause some error
  (4) All equations used are the standard statistical mechanics
      equations for an ideal gas
  (5) All vibrations are strictly harmonic

freq.     535.53  E(vib)   ...       0.12 
freq.     535.81  E(vib)   ...       0.12 
freq.     734.72  E(vib)   ...       0.06 
freq.    1118.16  E(vib)   ...       0.01 
freq.    1209.44  E(vib)   ...       0.01 
freq.    1209.80  E(vib)   ...       0.01 

------------
INNER ENERGY
------------

The inner energy is: U= E(el) + E(ZPE) + E(vib) + E(rot) + E(trans)
    E(el)   - is the total energy from the electronic structure calculation
              = E(kin-el) + E(nuc-el) + E(el-el) + E(nuc-nuc)
    E(ZPE)  - the the zero temperature vibrational energy from the frequency calculation
    E(vib)  - the the finite temperature correction to E(ZPE) due to population
              of excited vibrational states
    E(rot)  - is the rotational thermal energy
    E(trans)- is the translational thermal energy

Summary of contributions to the inner energy U:
Electronic energy                ...   -337.62836238 Eh
Zero point energy                ...      0.01217330 Eh       7.64 kcal/mol
Thermal vibrational correction   ...      0.00055302 Eh       0.35 kcal/mol
Thermal rotational correction    ...      0.00141627 Eh       0.89 kcal/mol
Thermal translational correction ...      0.00141627 Eh       0.89 kcal/mol
-----------------------------------------------------------------------
Total thermal energy                   -337.61280351 Eh


Summary of corrections to the electronic energy:
(perhaps to be used in another calculation)
Total thermal correction                  0.00338557 Eh       2.12 kcal/mol
Non-thermal (ZPE) correction              0.01217330 Eh       7.64 kcal/mol
-----------------------------------------------------------------------
Total correction                          0.01555887 Eh       9.76 kcal/mol


--------
ENTHALPY
--------

The enthalpy is H = U + kB*T
                kB is Boltzmann's constant
Total free energy                 ...   -337.61280351 Eh 
Thermal Enthalpy correction       ...      0.00094421 Eh       0.59 kcal/mol
-----------------------------------------------------------------------
Total Enthalpy                    ...   -337.61185930 Eh


Note: Rotational entropy computed according to Herzberg 
Infrared and Raman Spectra, Chapter V,1, Van Nostrand Reinhold, 1945 
Point Group:  C3v, Symmetry Number:   3  
Rotational constants in cm-1:     0.370164     0.370164     0.194954 

Vibrational entropy computed according to the QRRHO of S. Grimme
Chem.Eur.J. 2012 18 9955


-------
ENTROPY
-------

The entropy contributions are T*S = T*(S(el)+S(vib)+S(rot)+S(trans))
     S(el)   - electronic entropy
     S(vib)  - vibrational entropy
     S(rot)  - rotational entropy
     S(trans)- translational entropy
The entropies will be listed as multiplied by the temperature to get
units of energy

Electronic entropy                ...      0.00065446 Eh      0.41 kcal/mol
Vibrational entropy               ...      0.00073934 Eh      0.46 kcal/mol
Rotational entropy                ...      0.01018372 Eh      6.39 kcal/mol
Translational entropy             ...      0.01834582 Eh     11.51 kcal/mol
-----------------------------------------------------------------------
Final entropy term                ...      0.02992333 Eh     18.78 kcal/mol

In case the symmetry of your molecule has not been determined correctly
or in case you have a reason to use a different symmetry number we print 
out the resulting rotational entropy values for sn=1,12 :
 --------------------------------------------------------
|  sn= 1 | S(rot)=       0.01122101 Eh      7.04 kcal/mol|
|  sn= 2 | S(rot)=       0.01056655 Eh      6.63 kcal/mol|
|  sn= 3 | S(rot)=       0.01018372 Eh      6.39 kcal/mol|
|  sn= 4 | S(rot)=       0.00991210 Eh      6.22 kcal/mol|
|  sn= 5 | S(rot)=       0.00970141 Eh      6.09 kcal/mol|
|  sn= 6 | S(rot)=       0.00952926 Eh      5.98 kcal/mol|
|  sn= 7 | S(rot)=       0.00938372 Eh      5.89 kcal/mol|
|  sn= 8 | S(rot)=       0.00925764 Eh      5.81 kcal/mol|
|  sn= 9 | S(rot)=       0.00914643 Eh      5.74 kcal/mol|
|  sn=10 | S(rot)=       0.00904695 Eh      5.68 kcal/mol|
|  sn=11 | S(rot)=       0.00895696 Eh      5.62 kcal/mol|
|  sn=12 | S(rot)=       0.00887481 Eh      5.57 kcal/mol|
 --------------------------------------------------------


-------------------
GIBBS FREE ENERGY
-------------------

The Gibbs free energy is G = H - T*S

Total enthalpy                    ...   -337.61185930 Eh 
Total entropy correction          ...     -0.02992333 Eh    -18.78 kcal/mol
-----------------------------------------------------------------------
Final Gibbs free energy         ...   -337.64178263 Eh

For completeness - the Gibbs free energy minus the electronic energy
G-E(el)                           ...     -0.01342025 Eh     -8.42 kcal/mol


Timings for individual modules:

Sum of individual times         ...      121.837 sec (=   2.031 min)
GTO integral calculation        ...       39.134 sec (=   0.652 min)  32.1 %
SCF iterations                  ...       47.701 sec (=   0.795 min)  39.2 %
SCF Gradient evaluation         ...       12.838 sec (=   0.214 min)  10.5 %
Geometry relaxation             ...        0.193 sec (=   0.003 min)   0.2 %
Analytical frequency calculation...       21.970 sec (=   0.366 min)  18.0 %
                             ****ORCA TERMINATED NORMALLY****
TOTAL RUN TIME: 0 days 0 hours 2 minutes 13 seconds 776 msec

slurmID:    32260055
totalRuntime[s]:    133.852982946
