
                                 *****************
                                 * O   R   C   A *
                                 *****************

                                            #,                                       
                                            ###                                      
                                            ####                                     
                                            #####                                    
                                            ######                                   
                                           ########,                                 
                                     ,,################,,,,,                         
                               ,,#################################,,                 
                          ,,##########################################,,             
                       ,#########################################, ''#####,          
                    ,#############################################,,   '####,        
                  ,##################################################,,,,####,       
                ,###########''''           ''''###############################       
              ,#####''   ,,,,##########,,,,          '''####'''          '####       
            ,##' ,,,,###########################,,,                        '##       
           ' ,,###''''                  '''############,,,                           
         ,,##''                                '''############,,,,        ,,,,,,###''
      ,#''                                            '''#######################'''  
     '                                                          ''''####''''         
             ,#######,   #######,   ,#######,      ##                                
            ,#'     '#,  ##    ##  ,#'     '#,    #''#        ######   ,####,        
            ##       ##  ##   ,#'  ##            #'  '#       #        #'  '#        
            ##       ##  #######   ##           ,######,      #####,   #    #        
            '#,     ,#'  ##    ##  '#,     ,#' ,#      #,         ##   #,  ,#        
             '#######'   ##     ##  '#######'  #'      '#     #####' # '####'        



                  #######################################################
                  #                        -***-                        #
                  #          Department of theory and spectroscopy      #
                  #    Directorship and core code : Frank Neese         #
                  #        Max Planck Institute fuer Kohlenforschung    #
                  #                Kaiser Wilhelm Platz 1               #
                  #                 D-45470 Muelheim/Ruhr               #
                  #                      Germany                        #
                  #                                                     #
                  #                  All rights reserved                #
                  #                        -***-                        #
                  #######################################################


                         Program Version 5.0.4 -  RELEASE  -


 With contributions from (in alphabetic order):
   Daniel Aravena         : Magnetic Suceptibility
   Michael Atanasov       : Ab Initio Ligand Field Theory (pilot matlab implementation)
   Alexander A. Auer      : GIAO ZORA, VPT2 properties, NMR spectrum
   Ute Becker             : Parallelization
   Giovanni Bistoni       : ED, misc. LED, open-shell LED, HFLD
   Martin Brehm           : Molecular dynamics
   Dmytro Bykov           : SCF Hessian
   Vijay G. Chilkuri      : MRCI spin determinant printing, contributions to CSF-ICE
   Dipayan Datta          : RHF DLPNO-CCSD density
   Achintya Kumar Dutta   : EOM-CC, STEOM-CC
   Dmitry Ganyushin       : Spin-Orbit,Spin-Spin,Magnetic field MRCI
   Miquel Garcia          : C-PCM and meta-GGA Hessian, CC/C-PCM, Gaussian charge scheme
   Yang Guo               : DLPNO-NEVPT2, F12-NEVPT2, CIM, IAO-localization
   Andreas Hansen         : Spin unrestricted coupled pair/coupled cluster methods
   Benjamin Helmich-Paris : MC-RPA, TRAH-SCF, COSX integrals
   Lee Huntington         : MR-EOM, pCC
   Robert Izsak           : Overlap fitted RIJCOSX, COSX-SCS-MP3, EOM
   Marcus Kettner         : VPT2
   Christian Kollmar      : KDIIS, OOCD, Brueckner-CCSD(T), CCSD density, CASPT2, CASPT2-K
   Simone Kossmann        : Meta GGA functionals, TD-DFT gradient, OOMP2, MP2 Hessian
   Martin Krupicka        : Initial AUTO-CI
   Lucas Lang             : DCDCAS
   Marvin Lechner         : AUTO-CI (C++ implementation), FIC-MRCC
   Dagmar Lenk            : GEPOL surface, SMD
   Dimitrios Liakos       : Extrapolation schemes; Compound Job, initial MDCI parallelization
   Dimitrios Manganas     : Further ROCIS development; embedding schemes
   Dimitrios Pantazis     : SARC Basis sets
   Anastasios Papadopoulos: AUTO-CI, single reference methods and gradients
   Taras Petrenko         : DFT Hessian,TD-DFT gradient, ASA, ECA, R-Raman, ABS, FL, XAS/XES, NRVS
   Peter Pinski           : DLPNO-MP2, DLPNO-MP2 Gradient
   Christoph Reimann      : Effective Core Potentials
   Marius Retegan         : Local ZFS, SOC
   Christoph Riplinger    : Optimizer, TS searches, QM/MM, DLPNO-CCSD(T), (RO)-DLPNO pert. Triples
   Tobias Risthaus        : Range-separated hybrids, TD-DFT gradient, RPA, STAB
   Michael Roemelt        : Original ROCIS implementation
   Masaaki Saitow         : Open-shell DLPNO-CCSD energy and density
   Barbara Sandhoefer     : DKH picture change effects
   Avijit Sen             : IP-ROCIS
   Kantharuban Sivalingam : CASSCF convergence, NEVPT2, FIC-MRCI
   Bernardo de Souza      : ESD, SOC TD-DFT
   Georgi Stoychev        : AutoAux, RI-MP2 NMR, DLPNO-MP2 response
   Willem Van den Heuvel  : Paramagnetic NMR
   Boris Wezisla          : Elementary symmetry handling
   Frank Wennmohs         : Technical directorship


 We gratefully acknowledge several colleagues who have allowed us to
 interface, adapt or use parts of their codes:
   Stefan Grimme, W. Hujo, H. Kruse, P. Pracht,  : VdW corrections, initial TS optimization,
                  C. Bannwarth, S. Ehlert          DFT functionals, gCP, sTDA/sTD-DF
   Ed Valeev, F. Pavosevic, A. Kumar             : LibInt (2-el integral package), F12 methods
   Garnet Chan, S. Sharma, J. Yang, R. Olivares  : DMRG
   Ulf Ekstrom                                   : XCFun DFT Library
   Mihaly Kallay                                 : mrcc  (arbitrary order and MRCC methods)
   Jiri Pittner, Ondrej Demel                    : Mk-CCSD
   Frank Weinhold                                : gennbo (NPA and NBO analysis)
   Christopher J. Cramer and Donald G. Truhlar   : smd solvation model
   Lars Goerigk                                  : TD-DFT with DH, B97 family of functionals
   V. Asgeirsson, H. Jonsson                     : NEB implementation
   FAccTs GmbH                                   : IRC, NEB, NEB-TS, DLPNO-Multilevel, CI-OPT
                                                   MM, QMMM, 2- and 3-layer-ONIOM, Crystal-QMMM,
                                                   LR-CPCM, SF, NACMEs, symmetry and pop. for TD-DFT,
                                                   nearIR, NL-DFT gradient (VV10), updates on ESD,
                                                   ML-optimized integration grids
   S Lehtola, MJT Oliveira, MAL Marques          : LibXC Library
   Liviu Ungur et al                             : ANISO software


 Your calculation uses the libint2 library for the computation of 2-el integrals
 For citations please refer to: http://libint.valeyev.net

 Your ORCA version has been built with support for libXC version: 5.1.0
 For citations please refer to: https://tddft.org/programs/libxc/

 This ORCA versions uses:
   CBLAS   interface :  Fast vector & matrix operations
   LAPACKE interface :  Fast linear algebra routines
   SCALAPACK package :  Parallel linear algebra routines
   Shared memory     :  Shared parallel matrices
   BLAS/LAPACK       :  OpenBLAS 0.3.15  USE64BITINT DYNAMIC_ARCH NO_AFFINITY SkylakeX SINGLE_THREADED
        Core in use  :  SkylakeX
   Copyright (c) 2011-2014, The OpenBLAS Project


Your calculation utilizes the atom-pairwise dispersion correction
with the zero-damping scheme (D30)
Cite in your paper:
S.Grimme, J.Antony, S.Ehrlich and H.Krieg, J.Chem.Phys., 132, (2010), 154104 
   

XCFun DFT library Copyright 2009-2010 Ulf Ekstrom and contributors.
See http://admol.org/xcfun for more information.
This is free software; see the source code for copying conditions.
There is ABSOLUTELY NO WARRANTY; not even for MERCHANTABILITY or FITNESS FOR A PARTICULAR PURPOSE.
For details see the documentation.
Scientific users of this library should cite U. Ekstrom, L. Visscher, R. Bast, A. J. Thorvaldsen and K. Ruud;
J.Chem.Theor.Comp. 2010, DOI: 10.1021/ct100117s
XCFun Version 0.99 

================================================================================

----- Orbital basis set information -----
Your calculation utilizes the basis: def2-TZVPD
   F. Weigend and R. Ahlrichs, Phys. Chem. Chem. Phys. 7, 3297 (2005).
   D. Rappoport and F. Furche, J. Chem. Phys. 133 134105 (2010).

----- AuxJ basis set information -----
Your calculation utilizes the auxiliary basis: def2/J
   F. Weigend, Phys. Chem. Chem. Phys. 8, 1057 (2006).

================================================================================
                                        WARNINGS
                       Please study these warnings very carefully!
================================================================================


WARNING: Geometry Optimization
  ===> : Switching off AutoStart
         For restart on a previous wavefunction, please use MOREAD

INFO   : the flag for use of the SHARK integral package has been found!

================================================================================
                                       INPUT FILE
================================================================================
NAME = /beegfs/scratch/ispackman/PFAS_EPR_calcs/benchmark/JChemEd_CF3_radical/CF3_radical_97.0_degrees_IN-PROGRESS/CF3_radical_97.0_degrees.inp
|  1> ! UKS TightSCF wB97x-D3 def2-TZVPD xyzfile opt freq
|  2> 
|  3> # CF3 radical 97.0 degrees fixed
|  4> 
|  5> %maxcore 1000
|  6> %pal
|  7> nprocs 18
|  8> end
|  9> 
| 10> %geom Constraints
| 11>         { A * 0 * C }
| 12>     end
| 13> end
| 14> * xyz 0 2
| 15> C 0.00 0.00 0.00
| 16> F 1.1372377398 0.0000000000 -0.6602388379
| 17> F -0.5686188699 0.9848767728 -0.6602388379
| 18> F -0.5686188699 -0.9848767728 -0.6602388379
| 19> **                         ****END OF INPUT****
================================================================================

                       *****************************
                       * Geometry Optimization Run *
                       *****************************

Geometry optimization settings:
Update method            Update   .... BFGS
Choice of coordinates    CoordSys .... Z-matrix Internals
Initial Hessian          InHess   .... Almoef's Model

Convergence Tolerances:
Energy Change            TolE     ....  5.0000e-06 Eh
Max. Gradient            TolMAXG  ....  3.0000e-04 Eh/bohr
RMS Gradient             TolRMSG  ....  1.0000e-04 Eh/bohr
Max. Displacement        TolMAXD  ....  4.0000e-03 bohr
RMS Displacement         TolRMSD  ....  2.0000e-03 bohr
Strict Convergence                ....  False
------------------------------------------------------------------------------
                        ORCA OPTIMIZATION COORDINATE SETUP
------------------------------------------------------------------------------

The optimization will be done in new redundant internal coordinates
Making redundant internal coordinates   ...  (new redundants) done
Evaluating the initial hessian          ...  (Almloef) done
Evaluating the coordinates              ...  done
Calculating the B-matrix                .... done
Calculating the G-matrix                .... done
Diagonalizing the G-matrix              .... done
Imposing constraints:
 Iter   0:  RMS(Cart)=    0.0000000000 RMS(Int)=    0.0000000000
CONVERGED
Will constrain atom 0 coordinate 1 
Will constrain atom 0 coordinate 2 
Will constrain atom 1 coordinate 2 
The first mode is                       ....    1
The number of degrees of freedom        ....    6
Storing new coordinates                 .... done

    -----------------------------------------------------------------
                    Redundant Internal Coordinates


    -----------------------------------------------------------------
         Definition                    Initial Value    Approx d2E/dq
    -----------------------------------------------------------------
      1. B(F   1,C   0)                  1.3150         0.684896   
      2. B(F   2,C   0)                  1.3150         0.684896   
      3. B(F   3,C   0)                  1.3150         0.684896   
      4. A(F   2,C   0,F   3)           97.0000         0.440101 C 
      5. A(F   1,C   0,F   2)           97.0000         0.440101 C 
      6. A(F   1,C   0,F   3)           97.0000         0.440101 C 
      7. I(F   1,F   3,F   2,C   0)     79.4018         0.002599   
    -----------------------------------------------------------------

Number of atoms                         .... 4
Number of degrees of freedom            .... 7

         *************************************************************
         *                GEOMETRY OPTIMIZATION CYCLE   1            *
         *************************************************************
---------------------------------
CARTESIAN COORDINATES (ANGSTROEM)
---------------------------------
  C      0.000000    0.000000    0.000000
  F      1.137238    0.000000   -0.660239
  F     -0.568619    0.984877   -0.660239
  F     -0.568619   -0.984877   -0.660239

----------------------------
CARTESIAN COORDINATES (A.U.)
----------------------------
  NO LB      ZA    FRAG     MASS         X           Y           Z
   0 C     6.0000    0    12.011    0.000000    0.000000    0.000000
   1 F     9.0000    0    18.998    2.149068    0.000000   -1.247671
   2 F     9.0000    0    18.998   -1.074534    1.861147   -1.247671
   3 F     9.0000    0    18.998   -1.074534   -1.861147   -1.247671

--------------------------------
INTERNAL COORDINATES (ANGSTROEM)
--------------------------------
 C      0   0   0     0.000000000000     0.00000000     0.00000000
 F      1   0   0     1.314999999961     0.00000000     0.00000000
 F      1   2   0     1.314999999954    97.00000000     0.00000000
 F      1   2   3     1.314999999954    97.00000000    97.97741247

---------------------------
INTERNAL COORDINATES (A.U.)
---------------------------
 C      0   0   0     0.000000000000     0.00000000     0.00000000
 F      1   0   0     2.484989866032     0.00000000     0.00000000
 F      1   2   0     2.484989866019    97.00000000     0.00000000
 F      1   2   3     2.484989866019    97.00000000    97.97741247

---------------------
BASIS SET INFORMATION
---------------------
There are 2 groups of distinct atoms

 Group   1 Type C   : 12s6p3d1f contracted to 6s3p3d1f pattern {621111/411/111/1}
 Group   2 Type F   : 12s7p3d1f contracted to 6s4p3d1f pattern {621111/4111/111/1}

Atom   0C    basis set group =>   1
Atom   1F    basis set group =>   2
Atom   2F    basis set group =>   2
Atom   3F    basis set group =>   2
---------------------------------
AUXILIARY/J BASIS SET INFORMATION
---------------------------------
There are 2 groups of distinct atoms

 Group   1 Type C   : 12s5p4d2f1g contracted to 6s4p3d1f1g pattern {711111/2111/211/2/1}
 Group   2 Type F   : 12s5p4d2f1g contracted to 6s4p3d1f1g pattern {711111/2111/211/2/1}

Atom   0C    basis set group =>   1
Atom   1F    basis set group =>   2
Atom   2F    basis set group =>   2
Atom   3F    basis set group =>   2


           ************************************************************
           *        Program running with 18 parallel MPI-processes    *
           *              working on a common directory               *
           ************************************************************
------------------------------------------------------------------------------
                           ORCA GTO INTEGRAL CALCULATION
                           -- RI-GTO INTEGRALS CHOSEN --
------------------------------------------------------------------------------
------------------------------------------------------------------------------
                   ___                                                        
                  /   \      - P O W E R E D   B Y -                         
                 /     \                                                     
                 |  |  |   _    _      __       _____    __    __             
                 |  |  |  | |  | |    /  \     |  _  \  |  |  /  |          
                  \  \/   | |  | |   /    \    | | | |  |  | /  /          
                 / \  \   | |__| |  /  /\  \   | |_| |  |  |/  /          
                |  |  |   |  __  | /  /__\  \  |    /   |      \           
                |  |  |   | |  | | |   __   |  |    \   |  |\   \          
                \     /   | |  | | |  |  |  |  | |\  \  |  | \   \       
                 \___/    |_|  |_| |__|  |__|  |_| \__\ |__|  \__/        
                                                                              
                      - O R C A' S   B I G   F R I E N D -                    
                                      &                                       
                       - I N T E G R A L  F E E D E R -                       
                                                                              
 v1 FN, 2020, v2 2021                                                         
------------------------------------------------------------------------------


Reading SHARK input file /beegfs/scratch/ispackman/PFAS_EPR_calcs/benchmark/JChemEd_CF3_radical/CF3_radical_97.0_degrees_IN-PROGRESS/CF3_radical_97.0_degrees.SHARKINP.tmp ... ok
----------------------
SHARK INTEGRAL PACKAGE
----------------------

Number of atoms                             ...      4
Number of basis functions                   ...    157
Number of shells                            ...     55
Maximum angular momentum                    ...      3
Integral batch strategy                     ... SHARK/LIBINT Hybrid
RI-J (if used) integral strategy            ... SPLIT-RIJ (Revised 2003 algorithm where possible)
Printlevel                                  ...      1
Contraction scheme used                     ... SEGMENTED contraction
Coulomb Range Separation                    ... NOT USED
Exchange Range Separation                   ... Long Range
   Mu parameter                             ...  0.250000
   Scaling (regular/separated)              ...  0.195728  0.804272
Finite Nucleus Model                        ... NOT USED
Auxiliary Coulomb fitting basis             ... AVAILABLE
   # of basis functions in Aux-J            ...    196
   # of shells in Aux-J                     ...     60
   Maximum angular momentum in Aux-J        ...      4
Auxiliary J/K fitting basis                 ... NOT available
Auxiliary Correlation fitting basis         ... NOT available
Auxiliary 'external' fitting basis          ... NOT available
Integral threshold                          ...     2.500000e-11
Primitive cut-off                           ...     2.500000e-12
Primitive pair pre-selection threshold      ...     2.500000e-12

Calculating pre-screening integrals         ... done (  0.0 sec) Dimension = 55
Organizing shell pair data                  ... done (  0.1 sec)
Shell pair information
Total number of shell pairs                 ...      1540
Shell pairs after pre-screening             ...      1516
Total number of primitive shell pairs       ...      4274
Primitive shell pairs kept                  ...      3587
          la=0 lb=0:    282 shell pairs
          la=1 lb=0:    360 shell pairs
          la=1 lb=1:    120 shell pairs
          la=2 lb=0:    282 shell pairs
          la=2 lb=1:    180 shell pairs
          la=2 lb=2:     78 shell pairs
          la=3 lb=0:     96 shell pairs
          la=3 lb=1:     60 shell pairs
          la=3 lb=2:     48 shell pairs
          la=3 lb=3:     10 shell pairs

Calculating one electron integrals          ... done (  0.0 sec)
Calculating RI/J V-Matrix + Cholesky decomp.... done (  0.2 sec)
Calculating Nuclear repulsion               ... done (  0.0 sec) ENN=    130.473722750348 Eh

SHARK setup successfully completed in   0.6 seconds

Maximum memory used throughout the entire GTOINT-calculation: 15.2 MB


           ************************************************************
           *        Program running with 18 parallel MPI-processes    *
           *              working on a common directory               *
           ************************************************************
-------------------------------------------------------------------------------
                                 ORCA SCF
-------------------------------------------------------------------------------

------------
SCF SETTINGS
------------
Hamiltonian:
 Density Functional     Method          .... DFT(GTOs)
 Exchange Functional    Exchange        .... WB97X-D3
 Correlation Functional Correlation     .... WB97X-D3
 Gradients option       PostSCFGGA      .... off
 Hybrid DFT is turned on
   Fraction HF Exchange ScalHFX         ....  0.195728
   Scaling of DF-GGA-X  ScalDFX         ....  0.000000
   Scaling of DF-GGA-C  ScalDFC         ....  1.000000
   Scaling of DF-LDA-C  ScalLDAC        ....  1.000000
   Perturbative correction              ....  0.000000
   Density functional embedding theory  .... OFF
 Long-range corrected/Screened/Range-Separated Hybrid DFT is turned on
   Amount of maximum screened exact exchange              ....  0.804272
   Range separation parameter mu (erf(mu*r12)/r12)        ....  0.250000
 RI-approximation to the Coulomb term is turned on
   Number of AuxJ basis functions       .... 196
   RIJ-COSX (HFX calculated with COS-X)).... on


General Settings:
 Integral files         IntName         .... /beegfs/scratch/ispackman/PFAS_EPR_calcs/benchmark/JChemEd_CF3_radical/CF3_radical_97.0_degrees_IN-PROGRESS/CF3_radical_97.0_degrees
 Hartree-Fock type      HFTyp           .... UHF
 Total Charge           Charge          ....    0
 Multiplicity           Mult            ....    2
 Number of Electrons    NEL             ....   33
 Basis Dimension        Dim             ....  157
 Nuclear Repulsion      ENuc            ....    130.4737227503 Eh

Convergence Acceleration:
 DIIS                   CNVDIIS         .... on
   Start iteration      DIISMaxIt       ....    12
   Startup error        DIISStart       ....  0.200000
   # of expansion vecs  DIISMaxEq       ....     5
   Bias factor          DIISBfac        ....   1.050
   Max. coefficient     DIISMaxC        ....  10.000
 Trust-Rad. Augm. Hess. CNVTRAH         .... auto
   Auto Start mean grad. ratio tolernc. ....  1.125000
   Auto Start start iteration           ....    20
   Auto Start num. interpolation iter.  ....    10
   Max. Number of Micro iterations      ....    16
   Max. Number of Macro iterations      .... Maxiter - #DIIS iter
   Number of Davidson start vectors     ....     2
   Converg. threshold I  (grad. norm)   ....   1.000e-05
   Converg. threshold II (energy diff.) ....   1.000e-08
   Grad. Scal. Fac. for Micro threshold ....   0.100
   Minimum threshold for Micro iter.    ....   0.010
   NR start threshold (gradient norm)   ....   0.001
   Initial trust radius                 ....   0.400
   Minimum AH scaling param. (alpha)    ....   1.000
   Maximum AH scaling param. (alpha)    .... 1000.000
   Orbital update algorithm             .... Taylor
   White noise on init. David. guess    .... on
   Maximum white noise                  ....   0.010
   Quad. conv. algorithm                .... NR
 SOSCF                  CNVSOSCF        .... off
 Level Shifting         CNVShift        .... on
   Level shift para.    LevelShift      ....    0.2500
   Turn off err/grad.   ShiftErr        ....    0.0010
 Zerner damping         CNVZerner       .... off
 Static damping         CNVDamp         .... on
   Fraction old density DampFac         ....    0.7000
   Max. Damping (<1)    DampMax         ....    0.9800
   Min. Damping (>=0)   DampMin         ....    0.0000
   Turn off err/grad.   DampErr         ....    0.1000
 Fernandez-Rico         CNVRico         .... off

SCF Procedure:
 Maximum # iterations   MaxIter         ....   125
 SCF integral mode      SCFMode         .... Direct
   Integral package                     .... SHARK and LIBINT hybrid scheme
 Reset frequency        DirectResetFreq ....    20
 Integral Threshold     Thresh          ....  2.500e-11 Eh
 Primitive CutOff       TCut            ....  2.500e-12 Eh

Convergence Tolerance:
 Convergence Check Mode ConvCheckMode   .... Total+1el-Energy
 Convergence forced     ConvForced      .... 0
 Energy Change          TolE            ....  1.000e-08 Eh
 1-El. energy change                    ....  1.000e-05 Eh
 DIIS Error             TolErr          ....  5.000e-07


Diagonalization of the overlap matrix:
Smallest eigenvalue                        ... 3.572e-04
Time for diagonalization                   ...    0.007 sec
Threshold for overlap eigenvalues          ... 1.000e-08
Number of eigenvalues below threshold      ... 0
Time for construction of square roots      ...    0.074 sec
Total time needed                          ...    0.082 sec

Time for model grid setup =    0.113 sec

------------------------------
INITIAL GUESS: MODEL POTENTIAL
------------------------------
Loading Hartree-Fock densities                     ... done
Calculating cut-offs                               ... done
Initializing the effective Hamiltonian             ... done
Setting up the integral package (SHARK)            ... done
Starting the Coulomb interaction                   ... done (   0.3 sec)
Reading the grid                                   ... done
Mapping shells                                     ... done
Starting the XC term evaluation                    ... done (   0.0 sec)
  promolecular density results
     # of electrons  =     33.000160445
     EX              =    -35.107369977
     EC              =     -1.150070895
     EX+EC           =    -36.257440872
Transforming the Hamiltonian                       ... done (   0.0 sec)
Diagonalizing the Hamiltonian                      ... done (   0.0 sec)
Back transforming the eigenvectors                 ... done (   0.0 sec)
Now organizing SCF variables                       ... done
                      ------------------
                      INITIAL GUESS DONE (   0.4 sec)
                      ------------------
-------------------
DFT GRID GENERATION
-------------------

General Integration Accuracy     IntAcc      ... 4.388
Radial Grid Type                 RadialGrid  ... OptM3 with GC (2021)
Angular Grid (max. ang.)         AngularGrid ... 4 (Lebedev-302)
Angular grid pruning method      GridPruning ... 4 (adaptive)
Weight generation scheme         WeightScheme... Becke
Basis function cutoff            BFCut       ... 1.0000e-11
Integration weight cutoff        WCut        ... 1.0000e-14
Angular grids for H and He will be reduced by one unit
Partially contracted basis set               ... off
Rotationally invariant grid construction     ... off

Total number of grid points                  ...    25776
Total number of batches                      ...      404
Average number of points per batch           ...       63
Average number of grid points per atom       ...     6444
Time for grid setup =    0.199 sec

--------------------
COSX GRID GENERATION
--------------------

GRIDX 1
-------
General Integration Accuracy     IntAcc      ... 3.816
Radial Grid Type                 RadialGrid  ... OptM3 with GC (2021)
Angular Grid (max. ang.)         AngularGrid ... 1 (Lebedev-50)
Angular grid pruning method      GridPruning ... 4 (adaptive)
Weight generation scheme         WeightScheme... Becke
Basis function cutoff            BFCut       ... 1.0000e-11
Integration weight cutoff        WCut        ... 1.0000e-14
Angular grids for H and He will be reduced by one unit
Partially contracted basis set               ... on
Rotationally invariant grid construction     ... off

Total number of grid points                  ...     3274
Total number of batches                      ...       53
Average number of points per batch           ...       61
Average number of grid points per atom       ...      818
UseSFitting                                  ... on

GRIDX 2
-------
General Integration Accuracy     IntAcc      ... 4.020
Radial Grid Type                 RadialGrid  ... OptM3 with GC (2021)
Angular Grid (max. ang.)         AngularGrid ... 2 (Lebedev-110)
Angular grid pruning method      GridPruning ... 4 (adaptive)
Weight generation scheme         WeightScheme... Becke
Basis function cutoff            BFCut       ... 1.0000e-11
Integration weight cutoff        WCut        ... 1.0000e-14
Angular grids for H and He will be reduced by one unit
Partially contracted basis set               ... on
Rotationally invariant grid construction     ... off

Total number of grid points                  ...     9136
Total number of batches                      ...      145
Average number of points per batch           ...       63
Average number of grid points per atom       ...     2284
UseSFitting                                  ... on

GRIDX 3
-------
General Integration Accuracy     IntAcc      ... 4.338
Radial Grid Type                 RadialGrid  ... OptM3 with GC (2021)
Angular Grid (max. ang.)         AngularGrid ... 3 (Lebedev-194)
Angular grid pruning method      GridPruning ... 4 (adaptive)
Weight generation scheme         WeightScheme... Becke
Basis function cutoff            BFCut       ... 1.0000e-11
Integration weight cutoff        WCut        ... 1.0000e-14
Angular grids for H and He will be reduced by one unit
Partially contracted basis set               ... on
Rotationally invariant grid construction     ... off

Total number of grid points                  ...    19682
Total number of batches                      ...      310
Average number of points per batch           ...       63
Average number of grid points per atom       ...     4920
UseSFitting                                  ... on

Time for X-Grid setup             =    0.676 sec

--------------
SCF ITERATIONS
--------------
ITER       Energy         Delta-E        Max-DP      RMS-DP      [F,P]     Damp
               ***  Starting incremental Fock matrix formation  ***
  0   -337.5043980393   0.000000000000 0.01995773  0.00042716  0.0724518 0.7000
  1   -337.5357441896  -0.031346150266 0.01123138  0.00028166  0.0340267 0.7000
                               ***Turning on DIIS***
  2   -337.5486064845  -0.012862294946 0.02699512  0.00052640  0.0170668 0.0000
  3   -337.5712562744  -0.022649789932 0.00681948  0.00015795  0.0151931 0.0000
  4   -337.5749712318  -0.003714957331 0.00488966  0.00007820  0.0034469 0.0000
  5   -337.5751810742  -0.000209842416 0.00287085  0.00004578  0.0019618 0.0000
  6   -337.5752436953  -0.000062621136 0.00224243  0.00004098  0.0008503 0.0000
               *** Restarting incremental Fock matrix formation ***
                                   *** Resetting DIIS ***
  7   -337.5752692192  -0.000025523864 0.00046009  0.00000726  0.0001952 0.0000
  8   -337.5752701288  -0.000000909582 0.00007515  0.00000213  0.0001062 0.0000
  9   -337.5752703527  -0.000000223895 0.00007132  0.00000171  0.0001021 0.0000
 10   -337.5752704777  -0.000000125080 0.00004917  0.00000060  0.0000126 0.0000
 11   -337.5752704806  -0.000000002902 0.00001158  0.00000014  0.0000021 0.0000
                            ***DIIS convergence achieved***

               *****************************************************
               *                     SUCCESS                       *
               *           SCF CONVERGED AFTER  12 CYCLES          *
               *****************************************************

Old exchange energy                            =    -10.544875502 Eh
New exchange energy                            =    -10.544869749 Eh
Exchange energy change after final integration =      0.000005754 Eh
Total energy after final integration           =   -337.575264728 Eh
Final COS-X integration done in                =     0.385 sec

----------------
TOTAL SCF ENERGY
----------------

Total Energy       :         -337.57526473 Eh           -9185.88995 eV

Components:
Nuclear Repulsion  :          130.47372275 Eh            3550.37049 eV
Electronic Energy  :         -468.04898748 Eh          -12736.26045 eV
One Electron Energy:         -727.94159121 Eh          -19808.29773 eV
Two Electron Energy:          259.89260373 Eh            7072.03728 eV
Max COSX asymmetry :            0.00000041 Eh               0.00001 eV

Virial components:
Potential Energy   :         -674.49172004 Eh          -18353.85279 eV
Kinetic Energy     :          336.91645531 Eh            9167.96284 eV
Virial Ratio       :            2.00195541


DFT components:
N(Alpha)           :       16.999879867671 electrons
N(Beta)            :       15.999886276365 electrons
N(Total)           :       32.999766144036 electrons
E(XC)              :      -26.226909477110 Eh       
DFET-embed. en.    :        0.000000000000 Eh       

---------------
SCF CONVERGENCE
---------------

  Last Energy change         ...   -1.0243e-09  Tolerance :   1.0000e-08
  Last MAX-Density change    ...    0.0000e+00  Tolerance :   1.0000e-07
  Last RMS-Density change    ...    0.0000e+00  Tolerance :   5.0000e-09
  Last DIIS Error            ...    8.0267e-07  Tolerance :   5.0000e-07

             **** THE GBW FILE WAS UPDATED (/beegfs/scratch/ispackman/PFAS_EPR_calcs/benchmark/JChemEd_CF3_radical/CF3_radical_97.0_degrees_IN-PROGRESS/CF3_radical_97.0_degrees.gbw) ****
             **** DENSITY /beegfs/scratch/ispackman/PFAS_EPR_calcs/benchmark/JChemEd_CF3_radical/CF3_radical_97.0_degrees_IN-PROGRESS/CF3_radical_97.0_degrees.scfp WAS UPDATED ****
             **** ENERGY FILE WAS UPDATED (/beegfs/scratch/ispackman/PFAS_EPR_calcs/benchmark/JChemEd_CF3_radical/CF3_radical_97.0_degrees_IN-PROGRESS/CF3_radical_97.0_degrees.en.tmp) ****
----------------------
UHF SPIN CONTAMINATION
----------------------

Warning: in a DFT calculation there is little theoretical justification to 
         calculate <S**2> as in Hartree-Fock theory. We will do it anyways
         but you should keep in mind that the values have only limited relevance

Expectation value of <S**2>     :     0.752249
Ideal value S*(S+1) for S=0.5   :     0.750000
Deviation                       :     0.002249

             **** THE GBW FILE WAS UPDATED (/beegfs/scratch/ispackman/PFAS_EPR_calcs/benchmark/JChemEd_CF3_radical/CF3_radical_97.0_degrees_IN-PROGRESS/CF3_radical_97.0_degrees.gbw) ****
             **** DENSITY /beegfs/scratch/ispackman/PFAS_EPR_calcs/benchmark/JChemEd_CF3_radical/CF3_radical_97.0_degrees_IN-PROGRESS/CF3_radical_97.0_degrees.scfp WAS UPDATED ****
----------------
ORBITAL ENERGIES
----------------
                 SPIN UP ORBITALS
  NO   OCC          E(Eh)            E(eV) 
   0   1.0000     -24.832917      -675.7380 
   1   1.0000     -24.832908      -675.7378 
   2   1.0000     -24.832905      -675.7377 
   3   1.0000     -10.554037      -287.1899 
   4   1.0000      -1.491504       -40.5859 
   5   1.0000      -1.359191       -36.9855 
   6   1.0000      -1.359189       -36.9854 
   7   1.0000      -0.838094       -22.8057 
   8   1.0000      -0.720737       -19.6122 
   9   1.0000      -0.720730       -19.6121 
  10   1.0000      -0.710727       -19.3399 
  11   1.0000      -0.605251       -16.4697 
  12   1.0000      -0.605243       -16.4695 
  13   1.0000      -0.532925       -14.5016 
  14   1.0000      -0.532921       -14.5015 
  15   1.0000      -0.514930       -14.0119 
  16   1.0000      -0.449525       -12.2322 
  17   0.0000       0.072462         1.9718 
  18   0.0000       0.104756         2.8506 
  19   0.0000       0.104756         2.8506 
  20   0.0000       0.111528         3.0348 
  21   0.0000       0.157793         4.2938 
  22   0.0000       0.157793         4.2938 
  23   0.0000       0.173260         4.7146 
  24   0.0000       0.173261         4.7147 
  25   0.0000       0.193251         5.2586 
  26   0.0000       0.205293         5.5863 
  27   0.0000       0.205299         5.5865 
  28   0.0000       0.241592         6.5740 
  29   0.0000       0.284826         7.7505 
  30   0.0000       0.345542         9.4027 
  31   0.0000       0.345547         9.4028 
  32   0.0000       0.355439         9.6720 
  33   0.0000       0.379822        10.3355 
  34   0.0000       0.379823        10.3355 
  35   0.0000       0.402470        10.9518 
  36   0.0000       0.402472        10.9518 
  37   0.0000       0.405867        11.0442 
  38   0.0000       0.438148        11.9226 
  39   0.0000       0.485579        13.2133 
  40   0.0000       0.485585        13.2134 
  41   0.0000       0.537083        14.6148 
  42   0.0000       0.574885        15.6434 
  43   0.0000       0.625292        17.0151 
  44   0.0000       0.625295        17.0151 
  45   0.0000       0.704199        19.1622 
  46   0.0000       0.704205        19.1624 
  47   0.0000       0.707826        19.2609 
  48   0.0000       0.727689        19.8014 
  49   0.0000       0.743972        20.2445 
  50   0.0000       0.743978        20.2447 
  51   0.0000       0.773530        21.0488 
  52   0.0000       0.793999        21.6058 
  53   0.0000       0.794000        21.6058 
  54   0.0000       0.865664        23.5559 
  55   0.0000       0.904258        24.6061 
  56   0.0000       0.904260        24.6062 
  57   0.0000       0.930159        25.3109 
  58   0.0000       0.976230        26.5646 
  59   0.0000       0.976235        26.5647 
  60   0.0000       1.080911        29.4131 
  61   0.0000       1.080912        29.4131 
  62   0.0000       1.118048        30.4236 
  63   0.0000       1.158483        31.5239 
  64   0.0000       1.158500        31.5244 
  65   0.0000       1.171634        31.8818 
  66   0.0000       1.253226        34.1020 
  67   0.0000       1.253226        34.1020 
  68   0.0000       1.253655        34.1137 
  69   0.0000       1.298359        35.3302 
  70   0.0000       1.298360        35.3302 
  71   0.0000       1.354218        36.8501 
  72   0.0000       1.469207        39.9792 
  73   0.0000       1.469226        39.9797 
  74   0.0000       1.646385        44.8004 
  75   0.0000       2.120833        57.7108 
  76   0.0000       2.163764        58.8790 
  77   0.0000       2.163786        58.8796 
  78   0.0000       2.202400        59.9304 
  79   0.0000       2.211690        60.1832 
  80   0.0000       2.211714        60.1838 
  81   0.0000       2.211821        60.1867 
  82   0.0000       2.334639        63.5288 
  83   0.0000       2.334660        63.5293 
  84   0.0000       2.465200        67.0815 
  85   0.0000       2.466012        67.1036 
  86   0.0000       2.466018        67.1038 
  87   0.0000       2.600805        70.7715 
  88   0.0000       2.600806        70.7715 
  89   0.0000       2.888253        78.5934 
  90   0.0000       2.927282        79.6554 
  91   0.0000       2.927310        79.6562 
  92   0.0000       2.977358        81.0180 
  93   0.0000       3.029657        82.4412 
  94   0.0000       3.175181        86.4011 
  95   0.0000       3.175256        86.4031 
  96   0.0000       3.191762        86.8523 
  97   0.0000       3.291129        89.5562 
  98   0.0000       3.291203        89.5582 
  99   0.0000       3.403267        92.6076 
 100   0.0000       3.403280        92.6080 
 101   0.0000       3.440739        93.6273 
 102   0.0000       3.647031        99.2408 
 103   0.0000       3.647051        99.2413 
 104   0.0000       3.666808        99.7789 
 105   0.0000       3.809719       103.6677 
 106   0.0000       3.941813       107.2622 
 107   0.0000       3.941858       107.2634 
 108   0.0000       3.957827       107.6979 
 109   0.0000       4.111508       111.8798 
 110   0.0000       4.111528       111.8804 
 111   0.0000       4.226101       114.9980 
 112   0.0000       4.331025       117.8532 
 113   0.0000       4.331062       117.8542 
 114   0.0000       5.401639       146.9861 
 115   0.0000       5.401662       146.9867 
 116   0.0000       5.557275       151.2211 
 117   0.0000       6.913497       188.1258 
 118   0.0000       6.913519       188.1264 
 119   0.0000       6.919671       188.2938 
 120   0.0000       6.932603       188.6457 
 121   0.0000       6.932607       188.6458 
 122   0.0000       6.935142       188.7148 
 123   0.0000       6.940700       188.8661 
 124   0.0000       6.940731       188.8669 
 125   0.0000       6.965327       189.5362 
 126   0.0000       7.058621       192.0749 
 127   0.0000       7.058686       192.0766 
 128   0.0000       7.177006       195.2962 
 129   0.0000       7.246583       197.1895 
 130   0.0000       7.246591       197.1898 
 131   0.0000       7.269333       197.8086 
 132   0.0000       7.447211       202.6489 
 133   0.0000       7.506799       204.2704 
 134   0.0000       7.631628       207.6671 
 135   0.0000       7.631659       207.6680 
 136   0.0000       7.785990       211.8675 
 137   0.0000       7.786052       211.8692 
 138   0.0000       8.529755       232.1064 
 139   0.0000       8.529765       232.1067 
 140   0.0000       8.575297       233.3457 
 141   0.0000       8.596330       233.9180 
 142   0.0000       8.618992       234.5347 
 143   0.0000       8.619020       234.5354 
 144   0.0000       8.855021       240.9574 
 145   0.0000       8.857272       241.0186 
 146   0.0000       8.857288       241.0191 
 147   0.0000       9.067844       246.7486 
 148   0.0000       9.103408       247.7163 
 149   0.0000       9.103463       247.7178 
 150   0.0000       9.277622       252.4569 
 151   0.0000       9.395116       255.6541 
 152   0.0000       9.395137       255.6547 
 153   0.0000      22.646605       616.2454 
 154   0.0000      57.397856      1561.8751 
 155   0.0000      57.397875      1561.8756 
 156   0.0000      57.511457      1564.9663 

                 SPIN DOWN ORBITALS
  NO   OCC          E(Eh)            E(eV) 
   0   1.0000     -24.830130      -675.6622 
   1   1.0000     -24.830123      -675.6620 
   2   1.0000     -24.830112      -675.6617 
   3   1.0000     -10.541101      -286.8379 
   4   1.0000      -1.482943       -40.3529 
   5   1.0000      -1.350597       -36.7516 
   6   1.0000      -1.350594       -36.7515 
   7   1.0000      -0.819802       -22.3079 
   8   1.0000      -0.710354       -19.3297 
   9   1.0000      -0.710352       -19.3297 
  10   1.0000      -0.669132       -18.2080 
  11   1.0000      -0.593466       -16.1490 
  12   1.0000      -0.593457       -16.1488 
  13   1.0000      -0.525568       -14.3014 
  14   1.0000      -0.525564       -14.3013 
  15   1.0000      -0.511643       -13.9225 
  16   0.0000      -0.098338        -2.6759 
  17   0.0000       0.082822         2.2537 
  18   0.0000       0.108356         2.9485 
  19   0.0000       0.108357         2.9485 
  20   0.0000       0.125546         3.4163 
  21   0.0000       0.164160         4.4670 
  22   0.0000       0.164161         4.4670 
  23   0.0000       0.178192         4.8489 
  24   0.0000       0.178193         4.8489 
  25   0.0000       0.203568         5.5394 
  26   0.0000       0.228018         6.2047 
  27   0.0000       0.228020         6.2047 
  28   0.0000       0.242135         6.5888 
  29   0.0000       0.290597         7.9075 
  30   0.0000       0.364851         9.9281 
  31   0.0000       0.364854         9.9282 
  32   0.0000       0.368168        10.0184 
  33   0.0000       0.381131        10.3711 
  34   0.0000       0.381132        10.3711 
  35   0.0000       0.405008        11.0208 
  36   0.0000       0.405009        11.0209 
  37   0.0000       0.412689        11.2298 
  38   0.0000       0.448129        12.1942 
  39   0.0000       0.487370        13.2620 
  40   0.0000       0.487375        13.2621 
  41   0.0000       0.539480        14.6800 
  42   0.0000       0.583467        15.8769 
  43   0.0000       0.627042        17.0627 
  44   0.0000       0.627048        17.0628 
  45   0.0000       0.705411        19.1952 
  46   0.0000       0.705416        19.1953 
  47   0.0000       0.708041        19.2668 
  48   0.0000       0.737326        20.0637 
  49   0.0000       0.746450        20.3119 
  50   0.0000       0.746459        20.3122 
  51   0.0000       0.772728        21.0270 
  52   0.0000       0.796095        21.6628 
  53   0.0000       0.796096        21.6629 
  54   0.0000       0.866614        23.5818 
  55   0.0000       0.906520        24.6677 
  56   0.0000       0.906521        24.6677 
  57   0.0000       0.945209        25.7204 
  58   0.0000       0.983560        26.7640 
  59   0.0000       0.983568        26.7642 
  60   0.0000       1.084011        29.4974 
  61   0.0000       1.084012        29.4975 
  62   0.0000       1.123397        30.5692 
  63   0.0000       1.160841        31.5881 
  64   0.0000       1.160859        31.5886 
  65   0.0000       1.184538        32.2329 
  66   0.0000       1.254854        34.1463 
  67   0.0000       1.264167        34.3997 
  68   0.0000       1.264170        34.3998 
  69   0.0000       1.305228        35.5171 
  70   0.0000       1.305247        35.5176 
  71   0.0000       1.354614        36.8609 
  72   0.0000       1.470852        40.0239 
  73   0.0000       1.470876        40.0246 
  74   0.0000       1.701507        46.3004 
  75   0.0000       2.130190        57.9654 
  76   0.0000       2.173186        59.1354 
  77   0.0000       2.173220        59.1363 
  78   0.0000       2.205962        60.0273 
  79   0.0000       2.220811        60.4313 
  80   0.0000       2.220839        60.4321 
  81   0.0000       2.221375        60.4467 
  82   0.0000       2.339045        63.6486 
  83   0.0000       2.339067        63.6492 
  84   0.0000       2.466639        67.1207 
  85   0.0000       2.471602        67.2557 
  86   0.0000       2.471603        67.2558 
  87   0.0000       2.627151        71.4884 
  88   0.0000       2.627160        71.4887 
  89   0.0000       2.896182        78.8091 
  90   0.0000       2.932138        79.7875 
  91   0.0000       2.932170        79.7884 
  92   0.0000       2.981345        81.1265 
  93   0.0000       3.047125        82.9165 
  94   0.0000       3.189522        86.7913 
  95   0.0000       3.189553        86.7921 
  96   0.0000       3.245070        88.3028 
  97   0.0000       3.318681        90.3059 
  98   0.0000       3.318726        90.3071 
  99   0.0000       3.448930        93.8502 
 100   0.0000       3.448933        93.8502 
 101   0.0000       3.451098        93.9092 
 102   0.0000       3.662844        99.6711 
 103   0.0000       3.662879        99.6720 
 104   0.0000       3.703688       100.7825 
 105   0.0000       3.817595       103.8820 
 106   0.0000       3.964218       107.8718 
 107   0.0000       3.971583       108.0723 
 108   0.0000       3.971624       108.0734 
 109   0.0000       4.120693       112.1298 
 110   0.0000       4.120701       112.1300 
 111   0.0000       4.239622       115.3660 
 112   0.0000       4.342427       118.1635 
 113   0.0000       4.342480       118.1649 
 114   0.0000       5.410624       147.2306 
 115   0.0000       5.410656       147.2314 
 116   0.0000       5.569621       151.5571 
 117   0.0000       6.919271       188.2829 
 118   0.0000       6.919289       188.2834 
 119   0.0000       6.925325       188.4477 
 120   0.0000       6.935360       188.7207 
 121   0.0000       6.935362       188.7208 
 122   0.0000       6.940525       188.8613 
 123   0.0000       6.946404       189.0213 
 124   0.0000       6.946429       189.0219 
 125   0.0000       6.967200       189.5871 
 126   0.0000       7.063715       192.2135 
 127   0.0000       7.063778       192.2152 
 128   0.0000       7.181804       195.4268 
 129   0.0000       7.254788       197.4128 
 130   0.0000       7.254791       197.4129 
 131   0.0000       7.275708       197.9821 
 132   0.0000       7.455065       202.8626 
 133   0.0000       7.515796       204.5152 
 134   0.0000       7.638129       207.8441 
 135   0.0000       7.638166       207.8451 
 136   0.0000       7.794196       212.0908 
 137   0.0000       7.794258       212.0925 
 138   0.0000       8.537258       232.3106 
 139   0.0000       8.537268       232.3109 
 140   0.0000       8.585649       233.6274 
 141   0.0000       8.605041       234.1551 
 142   0.0000       8.628339       234.7890 
 143   0.0000       8.628366       234.7898 
 144   0.0000       8.858983       241.0652 
 145   0.0000       8.867163       241.2878 
 146   0.0000       8.867183       241.2883 
 147   0.0000       9.076555       246.9856 
 148   0.0000       9.107774       247.8351 
 149   0.0000       9.107821       247.8364 
 150   0.0000       9.282870       252.5997 
 151   0.0000       9.402016       255.8419 
 152   0.0000       9.402036       255.8424 
 153   0.0000      22.669907       616.8795 
 154   0.0000      57.400614      1561.9501 
 155   0.0000      57.400633      1561.9506 
 156   0.0000      57.514243      1565.0421 

                    ********************************
                    * MULLIKEN POPULATION ANALYSIS *
                    ********************************

--------------------------------------------
MULLIKEN ATOMIC CHARGES AND SPIN POPULATIONS
--------------------------------------------
   0 C :    0.574308    0.776534
   1 F :   -0.191319    0.074534
   2 F :   -0.191494    0.074466
   3 F :   -0.191495    0.074467
Sum of atomic charges         :   -0.0000000
Sum of atomic spin populations:    1.0000000

-----------------------------------------------------
MULLIKEN REDUCED ORBITAL CHARGES AND SPIN POPULATIONS
-----------------------------------------------------
CHARGE
  0 C s       :     3.180873  s :     3.180873
      pz      :     0.815223  p :     1.914909
      px      :     0.549847
      py      :     0.549838
      dz2     :     0.063380  d :     0.285586
      dxz     :     0.045611
      dyz     :     0.045611
      dx2y2   :     0.065488
      dxy     :     0.065496
      f0      :     0.001639  f :     0.044325
      f+1     :     0.007196
      f-1     :     0.007195
      f+2     :     0.007879
      f-2     :     0.007884
      f+3     :     0.003643
      f-3     :     0.008890
  1 F s       :     3.953646  s :     3.953646
      pz      :     1.700415  p :     5.228709
      px      :     1.597955
      py      :     1.930339
      dz2     :     0.000712  d :     0.008095
      dxz     :     0.005225
      dyz     :     0.001985
      dx2y2   :     0.003909
      dxy     :    -0.003737
      f0      :     0.000085  f :     0.000869
      f+1     :     0.000191
      f-1     :     0.000008
      f+2     :     0.000230
      f-2     :     0.000086
      f+3     :     0.000139
      f-3     :     0.000131
  2 F s       :     3.953728  s :     3.953728
      pz      :     1.700396  p :     5.228817
      px      :     1.847286
      py      :     1.681135
      dz2     :     0.000710  d :     0.008080
      dxz     :     0.002793
      dyz     :     0.004412
      dx2y2   :    -0.001825
      dxy     :     0.001990
      f0      :     0.000085  f :     0.000869
      f+1     :     0.000054
      f-1     :     0.000145
      f+2     :     0.000122
      f-2     :     0.000194
      f+3     :     0.000139
      f-3     :     0.000131
  3 F s       :     3.953729  s :     3.953729
      pz      :     1.700396  p :     5.228817
      px      :     1.847286
      py      :     1.681135
      dz2     :     0.000710  d :     0.008080
      dxz     :     0.002793
      dyz     :     0.004412
      dx2y2   :    -0.001825
      dxy     :     0.001990
      f0      :     0.000085  f :     0.000869
      f+1     :     0.000054
      f-1     :     0.000145
      f+2     :     0.000122
      f-2     :     0.000194
      f+3     :     0.000139
      f-3     :     0.000131

SPIN
  0 C s       :     0.280076  s :     0.280076
      pz      :     0.461041  p :     0.488068
      px      :     0.013497
      py      :     0.013530
      dz2     :     0.013696  d :     0.009093
      dxz     :    -0.001398
      dyz     :    -0.001397
      dx2y2   :    -0.000906
      dxy     :    -0.000903
      f0      :     0.000012  f :    -0.000704
      f+1     :    -0.000285
      f-1     :    -0.000284
      f+2     :    -0.000219
      f-2     :    -0.000221
      f+3     :     0.000255
      f-3     :     0.000037
  1 F s       :     0.003058  s :     0.003058
      pz      :     0.074258  p :     0.069925
      px      :    -0.003088
      py      :    -0.001246
      dz2     :    -0.000233  d :     0.001524
      dxz     :     0.001106
      dyz     :    -0.000020
      dx2y2   :     0.000785
      dxy     :    -0.000114
      f0      :     0.000004  f :     0.000028
      f+1     :     0.000011
      f-1     :     0.000002
      f+2     :     0.000003
      f-2     :     0.000001
      f+3     :     0.000007
      f-3     :    -0.000001
  2 F s       :     0.003041  s :     0.003041
      pz      :     0.074215  p :     0.069870
      px      :    -0.001708
      py      :    -0.002637
      dz2     :    -0.000233  d :     0.001526
      dxz     :     0.000262
      dyz     :     0.000823
      dx2y2   :     0.000111
      dxy     :     0.000563
      f0      :     0.000004  f :     0.000028
      f+1     :     0.000004
      f-1     :     0.000009
      f+2     :     0.000001
      f-2     :     0.000003
      f+3     :     0.000007
      f-3     :    -0.000001
  3 F s       :     0.003042  s :     0.003042
      pz      :     0.074215  p :     0.069871
      px      :    -0.001708
      py      :    -0.002636
      dz2     :    -0.000233  d :     0.001526
      dxz     :     0.000262
      dyz     :     0.000823
      dx2y2   :     0.000111
      dxy     :     0.000563
      f0      :     0.000004  f :     0.000028
      f+1     :     0.000004
      f-1     :     0.000009
      f+2     :     0.000001
      f-2     :     0.000003
      f+3     :     0.000007
      f-3     :    -0.000001


                     *******************************
                     * LOEWDIN POPULATION ANALYSIS *
                     *******************************

-------------------------------------------
LOEWDIN ATOMIC CHARGES AND SPIN POPULATIONS
-------------------------------------------
   0 C :   -0.319347    0.627832
   1 F :    0.106455    0.124070
   2 F :    0.106446    0.124049
   3 F :    0.106446    0.124049

----------------------------------------------------
LOEWDIN REDUCED ORBITAL CHARGES AND SPIN POPULATIONS
----------------------------------------------------
CHARGE
  0 C s       :     2.715119  s :     2.715119
      pz      :     0.803002  p :     2.153612
      px      :     0.675296
      py      :     0.675314
      dz2     :     0.171469  d :     1.165392
      dxz     :     0.217886
      dyz     :     0.217890
      dx2y2   :     0.279072
      dxy     :     0.279075
      f0      :     0.016973  f :     0.285225
      f+1     :     0.036049
      f-1     :     0.036047
      f+2     :     0.058061
      f-2     :     0.058066
      f+3     :     0.032128
      f-3     :     0.047901
  1 F s       :     3.547694  s :     3.547694
      pz      :     1.653065  p :     5.094397
      px      :     1.651707
      py      :     1.789626
      dz2     :     0.044091  d :     0.249381
      dxz     :     0.068245
      dyz     :     0.013714
      dx2y2   :     0.043941
      dxy     :     0.079391
      f0      :     0.000174  f :     0.002072
      f+1     :     0.000549
      f-1     :     0.000004
      f+2     :     0.000493
      f-2     :     0.000202
      f+3     :     0.000290
      f-3     :     0.000360
  2 F s       :     3.547696  s :     3.547696
      pz      :     1.653073  p :     5.094410
      px      :     1.755149
      py      :     1.686188
      dz2     :     0.044090  d :     0.249375
      dxz     :     0.027346
      dyz     :     0.054611
      dx2y2   :     0.070527
      dxy     :     0.052802
      f0      :     0.000174  f :     0.002073
      f+1     :     0.000140
      f-1     :     0.000413
      f+2     :     0.000275
      f-2     :     0.000420
      f+3     :     0.000290
      f-3     :     0.000360
  3 F s       :     3.547696  s :     3.547696
      pz      :     1.653073  p :     5.094410
      px      :     1.755149
      py      :     1.686188
      dz2     :     0.044090  d :     0.249376
      dxz     :     0.027346
      dyz     :     0.054611
      dx2y2   :     0.070527
      dxy     :     0.052802
      f0      :     0.000174  f :     0.002073
      f+1     :     0.000140
      f-1     :     0.000413
      f+2     :     0.000275
      f-2     :     0.000420
      f+3     :     0.000290
      f-3     :     0.000360

SPIN
  0 C s       :     0.164130  s :     0.164130
      pz      :     0.396153  p :     0.408251
      px      :     0.006043
      py      :     0.006055
      dz2     :     0.055662  d :     0.047180
      dxz     :    -0.003585
      dyz     :    -0.003586
      dx2y2   :    -0.000656
      dxy     :    -0.000654
      f0      :     0.002309  f :     0.008270
      f+1     :    -0.000229
      f-1     :    -0.000228
      f+2     :    -0.000173
      f-2     :    -0.000175
      f+3     :     0.006764
      f-3     :     0.000003
  1 F s       :     0.014616  s :     0.014616
      pz      :     0.076900  p :     0.081991
      px      :     0.005703
      py      :    -0.000612
      dz2     :     0.011766  d :     0.027159
      dxz     :     0.014619
      dyz     :    -0.000225
      dx2y2   :     0.001011
      dxy     :    -0.000011
      f0      :     0.000008  f :     0.000303
      f+1     :     0.000241
      f-1     :     0.000001
      f+2     :     0.000019
      f-2     :     0.000001
      f+3     :     0.000031
      f-3     :     0.000002
  2 F s       :     0.014616  s :     0.014616
      pz      :     0.076872  p :     0.081970
      px      :     0.000968
      py      :     0.004130
      dz2     :     0.011767  d :     0.027160
      dxz     :     0.003486
      dyz     :     0.010908
      dx2y2   :     0.000244
      dxy     :     0.000755
      f0      :     0.000008  f :     0.000303
      f+1     :     0.000061
      f-1     :     0.000181
      f+2     :     0.000005
      f-2     :     0.000014
      f+3     :     0.000031
      f-3     :     0.000002
  3 F s       :     0.014616  s :     0.014616
      pz      :     0.076872  p :     0.081970
      px      :     0.000968
      py      :     0.004130
      dz2     :     0.011767  d :     0.027160
      dxz     :     0.003486
      dyz     :     0.010908
      dx2y2   :     0.000244
      dxy     :     0.000755
      f0      :     0.000008  f :     0.000303
      f+1     :     0.000061
      f-1     :     0.000181
      f+2     :     0.000005
      f-2     :     0.000014
      f+3     :     0.000031
      f-3     :     0.000002


                      *****************************
                      * MAYER POPULATION ANALYSIS *
                      *****************************

  NA   - Mulliken gross atomic population
  ZA   - Total nuclear charge
  QA   - Mulliken gross atomic charge
  VA   - Mayer's total valence
  BVA  - Mayer's bonded valence
  FA   - Mayer's free valence

  ATOM       NA         ZA         QA         VA         BVA        FA
  0 C      5.4257     6.0000     0.5743     3.7945     3.1838     0.6108
  1 F      9.1913     9.0000    -0.1913     1.0087     1.0042     0.0045
  2 F      9.1915     9.0000    -0.1915     1.0083     1.0038     0.0045
  3 F      9.1915     9.0000    -0.1915     1.0083     1.0038     0.0045

  Mayer bond orders larger than 0.100000
B(  0-C ,  1-F ) :   1.0615 B(  0-C ,  2-F ) :   1.0611 B(  0-C ,  3-F ) :   1.0611 


-------
TIMINGS
-------

Total SCF time: 0 days 0 hours 0 min 20 sec 

Total time                  ....      20.467 sec
Sum of individual times     ....      18.277 sec  ( 89.3%)

Fock matrix formation       ....      14.548 sec  ( 71.1%)
  Split-RI-J                ....       1.324 sec  (  9.1% of F)
  Chain of spheres X        ....       3.015 sec  ( 20.7% of F)
  XC integration            ....       3.105 sec  ( 21.3% of F)
    Basis function eval.    ....       0.116 sec  (  3.7% of XC)
    Density eval.           ....       0.169 sec  (  5.5% of XC)
    XC-Functional eval.     ....       0.082 sec  (  2.6% of XC)
    XC-Potential eval.      ....       0.317 sec  ( 10.2% of XC)
Diagonalization             ....       0.414 sec  (  2.0%)
Density matrix formation    ....       0.015 sec  (  0.1%)
Population analysis         ....       0.375 sec  (  1.8%)
Initial guess               ....       0.328 sec  (  1.6%)
Orbital Transformation      ....       0.000 sec  (  0.0%)
Orbital Orthonormalization  ....       0.000 sec  (  0.0%)
DIIS solution               ....       1.608 sec  (  7.9%)
Grid generation             ....       0.989 sec  (  4.8%)

Maximum memory used throughout the entire SCF-calculation: 63.2 MB


-------------------------------------------------------------------------------
                          DFT DISPERSION CORRECTION                            
                                                                               
                              DFTD3 V3.1  Rev 1                                
                              USING zero damping                               
-------------------------------------------------------------------------------
The omegaB97X-D3 functional is recognized. Fit by Chai et al.
Active option DFTDOPT                   ...         3   

molecular C6(AA) [au] = 165.481590 


            DFT-D V3
 parameters
 s6 scaling factor         :     1.0000 
 rs6 scaling factor        :     1.2810 
 s8 scaling factor         :     1.0000 
 rs8 scaling factor        :     1.0940 
 Damping factor alpha6     :    14.0000 
 Damping factor alpha8     :    16.0000 
 ad hoc parameters k1-k3   :    16.0000     1.3333    -4.0000 

 Edisp/kcal,au: -0.024336994824  -0.000038783466 
 E6   /kcal   :  -0.003081598 
 E8   /kcal   :  -0.021255397 
 % E8         :  87.337802647 

-------------------------   ----------------
Dispersion correction           -0.000038783
-------------------------   ----------------


-------------------------   --------------------
FINAL SINGLE POINT ENERGY      -337.575303511624
-------------------------   --------------------



           ************************************************************
           *        Program running with 18 parallel MPI-processes    *
           *              working on a common directory               *
           ************************************************************
------------------------------------------------------------------------------
                         ORCA SCF GRADIENT CALCULATION
------------------------------------------------------------------------------

 ... reading COSX grid (gridx3)
Gradient of the Kohn-Sham DFT energy:
Kohn-Sham wavefunction type      ... UKS
Hartree-Fock exchange scaling    ...    0.196
Number of operators              ...    2
Number of atoms                  ...    4
Basis set dimensions             ...  157
Integral neglect threshold       ... 2.5e-11
Integral primitive cutoff        ... 2.5e-12
SHARK Integral package           ... ON

Nuc. rep. gradient       (SHARK) ... done (  0.0 sec)
HCore & Overlap gradient (SHARK) ... done (  0.0 sec)
RI-J gradient            (SHARK) ... done (  0.2 sec)
COSX-gradient                    ... done (  0.4 sec)
Exchange-correlation gradient    ... done
Dispersion correction            ... done

------------------
CARTESIAN GRADIENT
------------------

WARNING: THERE ARE 3 CONSTRAINED CARTESIAN COORDINATES
   1   C   :   -0.000285314    0.000000021    0.132746132
   2   F   :   -0.083677470    0.000000014   -0.044345678
   3   F   :    0.042063299   -0.072514957   -0.044326738
   4   F   :    0.042063192    0.072514630   -0.044326734

Difference to translation invariance:
           :    0.0001637067   -0.0000002912   -0.0002530178

Difference to rotation invariance:
           :   -0.0000003982   -0.0005195217    0.0000001812

Norm of the cartesian gradient     ...    0.2111284390
RMS gradient                       ...    0.0609475306
MAX gradient                       ...    0.1327461320

-------
TIMINGS
-------

Total SCF gradient time            ...        1.363 sec

One electron gradient       ....       0.012 sec  (  0.9%)
RI-J Coulomb gradient       ....       0.171 sec  ( 12.5%)
COSX gradient               ....       0.446 sec  ( 32.7%)
XC gradient                 ....       0.164 sec  ( 12.0%)

Maximum memory used throughout the entire SCFGRAD-calculation: 37.3 MB
------------------------------------------------------------------------------
                         ORCA GEOMETRY RELAXATION STEP
------------------------------------------------------------------------------

Reading the OPT-File                    .... done
Getting information on internals        .... done
Copying old internal coords+grads       .... done
Making the new internal coordinates     .... (new redundants).... done
Validating the new internal coordinates .... (new redundants).... done
Calculating the B-matrix                .... done
Calculating the G,G- and P matrices     .... done
Transforming gradient to internals      .... done
Projecting the internal gradient        .... done
Number of atoms                         ....   4
Number of internal coordinates          ....   7
Current Energy                          ....  -337.575303512 Eh
Current gradient norm                   ....     0.211128439 Eh/bohr
Maximum allowed component of the step   ....  0.300
Current trust radius                    ....  0.300
Evaluating the initial hessian          ....  (Almloef) done
Projecting the Hessian                  .... done
Forming the augmented Hessian           .... done
Diagonalizing the augmented Hessian     .... done
Last element of RFO vector              ....  0.992273494
Lowest eigenvalues of augmented Hessian:
 -0.010877702  0.684895726  0.684895726  0.695773427 1000.000000000
Length of the computed step             ....  0.125035879
The final length of the internal step   ....  0.125035879
Converting the step to cartesian space:
 Initial RMS(Int)=    0.0472591201
Transforming coordinates:
 Iter   0:  RMS(Cart)=    0.0325040037 RMS(Int)=    0.0472591203
 Iter   1:  RMS(Cart)=    0.0000000005 RMS(Int)=    0.0000000009
Imposing constraints:
 Iter   0:  RMS(Cart)=    0.0000000018 RMS(Int)=    0.0000000021
CONVERGED
done
Storing new coordinates                 .... done

                                .--------------------.
          ----------------------|Geometry convergence|-------------------------
          Item                value                   Tolerance       Converged
          ---------------------------------------------------------------------
          RMS gradient        0.0328816400            0.0001000000      NO
          MAX gradient        0.0502757110            0.0003000000      NO
          RMS step            0.0472591201            0.0020000000      NO
          MAX step            0.0722587398            0.0040000000      NO
          ........................................................
          Max(Bonds)      0.0382      Max(Angles)    0.00
          Max(Dihed)        0.00      Max(Improp)    0.00
          ---------------------------------------------------------------------

The optimization has not yet converged - more geometry cycles are needed


    ---------------------------------------------------------------------------
                         Redundant Internal Coordinates
                            (Angstroem and degrees)

        Definition                    Value    dE/dq     Step     New-Value
    ----------------------------------------------------------------------------
     1. B(F   1,C   0)                1.3150 -0.050131  0.0381    1.3531   
     2. B(F   2,C   0)                1.3150 -0.050276  0.0382    1.3532   
     3. B(F   3,C   0)                1.3150 -0.050276  0.0382    1.3532   
     4. A(F   2,C   0,F   3)           97.00 -0.139791   -0.00     97.00 C 
     5. A(F   1,C   0,F   2)           97.00 -0.065248   -0.00     97.00 C 
     6. A(F   1,C   0,F   3)           97.00 -0.065247   -0.00     97.00 C 
     7. I(F   1,F   3,F   2,C   0)     79.40  0.114214    0.00     79.40   
    ----------------------------------------------------------------------------

         *************************************************************
         *                GEOMETRY OPTIMIZATION CYCLE   2            *
         *************************************************************
---------------------------------
CARTESIAN COORDINATES (ANGSTROEM)
---------------------------------
  C      0.000034   -0.000000    0.014385
  F      1.170232   -0.000000   -0.665021
  F     -0.585133    1.013515   -0.665040
  F     -0.585133   -1.013515   -0.665040

----------------------------
CARTESIAN COORDINATES (A.U.)
----------------------------
  NO LB      ZA    FRAG     MASS         X           Y           Z
   0 C     6.0000    0    12.011    0.000064   -0.000000    0.027184
   1 F     9.0000    0    18.998    2.211417   -0.000000   -1.256707
   2 F     9.0000    0    18.998   -1.105741    1.915266   -1.256744
   3 F     9.0000    0    18.998   -1.105741   -1.915266   -1.256744

--------------------------------
INTERNAL COORDINATES (ANGSTROEM)
--------------------------------
 C      0   0   0     0.000000000000     0.00000000     0.00000000
 F      1   0   0     1.353127803072     0.00000000     0.00000000
 F      1   2   0     1.353237678134    96.99999989     0.00000000
 F      1   2   3     1.353237525138    96.99999989    97.97741221

---------------------------
INTERNAL COORDINATES (A.U.)
---------------------------
 C      0   0   0     0.000000000000     0.00000000     0.00000000
 F      1   0   0     2.557040972000     0.00000000     0.00000000
 F      1   2   0     2.557248605776    96.99999989     0.00000000
 F      1   2   3     2.557248316655    96.99999989    97.97741221



           ************************************************************
           *        Program running with 18 parallel MPI-processes    *
           *              working on a common directory               *
           ************************************************************
------------------------------------------------------------------------------
                   ___                                                        
                  /   \      - P O W E R E D   B Y -                         
                 /     \                                                     
                 |  |  |   _    _      __       _____    __    __             
                 |  |  |  | |  | |    /  \     |  _  \  |  |  /  |          
                  \  \/   | |  | |   /    \    | | | |  |  | /  /          
                 / \  \   | |__| |  /  /\  \   | |_| |  |  |/  /          
                |  |  |   |  __  | /  /__\  \  |    /   |      \           
                |  |  |   | |  | | |   __   |  |    \   |  |\   \          
                \     /   | |  | | |  |  |  |  | |\  \  |  | \   \       
                 \___/    |_|  |_| |__|  |__|  |_| \__\ |__|  \__/        
                                                                              
                      - O R C A' S   B I G   F R I E N D -                    
                                      &                                       
                       - I N T E G R A L  F E E D E R -                       
                                                                              
 v1 FN, 2020, v2 2021                                                         
------------------------------------------------------------------------------


Reading SHARK input file /beegfs/scratch/ispackman/PFAS_EPR_calcs/benchmark/JChemEd_CF3_radical/CF3_radical_97.0_degrees_IN-PROGRESS/CF3_radical_97.0_degrees.SHARKINP.tmp ... ok
----------------------
SHARK INTEGRAL PACKAGE
----------------------

Number of atoms                             ...      4
Number of basis functions                   ...    157
Number of shells                            ...     55
Maximum angular momentum                    ...      3
Integral batch strategy                     ... SHARK/LIBINT Hybrid
RI-J (if used) integral strategy            ... SPLIT-RIJ (Revised 2003 algorithm where possible)
Printlevel                                  ...      1
Contraction scheme used                     ... SEGMENTED contraction
Coulomb Range Separation                    ... NOT USED
Exchange Range Separation                   ... Long Range
   Mu parameter                             ...  0.250000
   Scaling (regular/separated)              ...  0.195728  0.804272
Finite Nucleus Model                        ... NOT USED
Auxiliary Coulomb fitting basis             ... AVAILABLE
   # of basis functions in Aux-J            ...    196
   # of shells in Aux-J                     ...     60
   Maximum angular momentum in Aux-J        ...      4
Auxiliary J/K fitting basis                 ... NOT available
Auxiliary Correlation fitting basis         ... NOT available
Auxiliary 'external' fitting basis          ... NOT available
Integral threshold                          ...     2.500000e-11
Primitive cut-off                           ...     2.500000e-12
Primitive pair pre-selection threshold      ...     2.500000e-12

Calculating pre-screening integrals         ... done (  0.0 sec) Dimension = 55
Organizing shell pair data                  ... done (  0.0 sec)
Shell pair information
Total number of shell pairs                 ...      1540
Shell pairs after pre-screening             ...      1510
Total number of primitive shell pairs       ...      4274
Primitive shell pairs kept                  ...      3575
          la=0 lb=0:    282 shell pairs
          la=1 lb=0:    360 shell pairs
          la=1 lb=1:    120 shell pairs
          la=2 lb=0:    276 shell pairs
          la=2 lb=1:    180 shell pairs
          la=2 lb=2:     78 shell pairs
          la=3 lb=0:     96 shell pairs
          la=3 lb=1:     60 shell pairs
          la=3 lb=2:     48 shell pairs
          la=3 lb=3:     10 shell pairs

Calculating one electron integrals          ... done (  0.0 sec)
Calculating RI/J V-Matrix + Cholesky decomp.... done (  0.2 sec)
Calculating Nuclear repulsion               ... done (  0.0 sec) ENN=    126.790436424628 Eh

SHARK setup successfully completed in   0.6 seconds

Maximum memory used throughout the entire GTOINT-calculation: 15.2 MB


           ************************************************************
           *        Program running with 18 parallel MPI-processes    *
           *              working on a common directory               *
           ************************************************************

Diagonalization of the overlap matrix:
Smallest eigenvalue                        ... 3.993e-04
Time for diagonalization                   ...    0.008 sec
Threshold for overlap eigenvalues          ... 1.000e-08
Number of eigenvalues below threshold      ... 0
Time for construction of square roots      ...    0.084 sec
Total time needed                          ...    0.093 sec

-------------------
DFT GRID GENERATION
-------------------

General Integration Accuracy     IntAcc      ... 4.388
Radial Grid Type                 RadialGrid  ... OptM3 with GC (2021)
Angular Grid (max. ang.)         AngularGrid ... 4 (Lebedev-302)
Angular grid pruning method      GridPruning ... 4 (adaptive)
Weight generation scheme         WeightScheme... Becke
Basis function cutoff            BFCut       ... 1.0000e-11
Integration weight cutoff        WCut        ... 1.0000e-14
Angular grids for H and He will be reduced by one unit
Partially contracted basis set               ... off
Rotationally invariant grid construction     ... off

Total number of grid points                  ...    25783
Total number of batches                      ...      405
Average number of points per batch           ...       63
Average number of grid points per atom       ...     6446
Time for grid setup =    0.189 sec

--------------------
COSX GRID GENERATION
--------------------

GRIDX 1
-------
General Integration Accuracy     IntAcc      ... 3.816
Radial Grid Type                 RadialGrid  ... OptM3 with GC (2021)
Angular Grid (max. ang.)         AngularGrid ... 1 (Lebedev-50)
Angular grid pruning method      GridPruning ... 4 (adaptive)
Weight generation scheme         WeightScheme... Becke
Basis function cutoff            BFCut       ... 1.0000e-11
Integration weight cutoff        WCut        ... 1.0000e-14
Angular grids for H and He will be reduced by one unit
Partially contracted basis set               ... on
Rotationally invariant grid construction     ... off

Total number of grid points                  ...     3274
Total number of batches                      ...       53
Average number of points per batch           ...       61
Average number of grid points per atom       ...      818
UseSFitting                                  ... on

GRIDX 2
-------
General Integration Accuracy     IntAcc      ... 4.020
Radial Grid Type                 RadialGrid  ... OptM3 with GC (2021)
Angular Grid (max. ang.)         AngularGrid ... 2 (Lebedev-110)
Angular grid pruning method      GridPruning ... 4 (adaptive)
Weight generation scheme         WeightScheme... Becke
Basis function cutoff            BFCut       ... 1.0000e-11
Integration weight cutoff        WCut        ... 1.0000e-14
Angular grids for H and He will be reduced by one unit
Partially contracted basis set               ... on
Rotationally invariant grid construction     ... off

Total number of grid points                  ...     9139
Total number of batches                      ...      144
Average number of points per batch           ...       63
Average number of grid points per atom       ...     2285
UseSFitting                                  ... on

GRIDX 3
-------
General Integration Accuracy     IntAcc      ... 4.338
Radial Grid Type                 RadialGrid  ... OptM3 with GC (2021)
Angular Grid (max. ang.)         AngularGrid ... 3 (Lebedev-194)
Angular grid pruning method      GridPruning ... 4 (adaptive)
Weight generation scheme         WeightScheme... Becke
Basis function cutoff            BFCut       ... 1.0000e-11
Integration weight cutoff        WCut        ... 1.0000e-14
Angular grids for H and He will be reduced by one unit
Partially contracted basis set               ... on
Rotationally invariant grid construction     ... off

Total number of grid points                  ...    19696
Total number of batches                      ...      309
Average number of points per batch           ...       63
Average number of grid points per atom       ...     4924
UseSFitting                                  ... on

Time for X-Grid setup             =    0.753 sec

--------------
SCF ITERATIONS
[...]
  FA   - Mayer's free valence

  ATOM       NA         ZA         QA         VA         BVA        FA
  0 C      5.4666     6.0000     0.5334     3.7749     3.1794     0.5955
  1 F      9.1776     9.0000    -0.1776     1.0245     1.0189     0.0056
  2 F      9.1779     9.0000    -0.1779     1.0240     1.0184     0.0056
  3 F      9.1779     9.0000    -0.1779     1.0240     1.0184     0.0056

  Mayer bond orders larger than 0.100000
B(  0-C ,  1-F ) :   1.0601 B(  0-C ,  2-F ) :   1.0597 B(  0-C ,  3-F ) :   1.0597 


-------
TIMINGS
-------

Total SCF time: 0 days 0 hours 0 min 7 sec 

Total time                  ....       7.988 sec
Sum of individual times     ....       6.316 sec  ( 79.1%)

Fock matrix formation       ....       4.668 sec  ( 58.4%)
  Split-RI-J                ....       0.516 sec  ( 11.1% of F)
  Chain of spheres X        ....       1.353 sec  ( 29.0% of F)
  XC integration            ....       0.914 sec  ( 19.6% of F)
    Basis function eval.    ....       0.039 sec  (  4.3% of XC)
    Density eval.           ....       0.054 sec  (  5.9% of XC)
    XC-Functional eval.     ....       0.029 sec  (  3.2% of XC)
    XC-Potential eval.      ....       0.066 sec  (  7.2% of XC)
Diagonalization             ....       0.139 sec  (  1.7%)
Density matrix formation    ....       0.023 sec  (  0.3%)
Population analysis         ....       0.342 sec  (  4.3%)
Initial guess               ....       0.026 sec  (  0.3%)
Orbital Transformation      ....       0.000 sec  (  0.0%)
Orbital Orthonormalization  ....       0.013 sec  (  0.2%)
DIIS solution               ....       0.107 sec  (  1.3%)
Grid generation             ....       1.012 sec  ( 12.7%)

Maximum memory used throughout the entire SCF-calculation: 63.2 MB


-------------------------------------------------------------------------------
                          DFT DISPERSION CORRECTION                            
                                                                               
                              DFTD3 V3.1  Rev 1                                
                              USING zero damping                               
-------------------------------------------------------------------------------
The omegaB97X-D3 functional is recognized. Fit by Chai et al.
Active option DFTDOPT                   ...         3   

molecular C6(AA) [au] = 165.597009 


            DFT-D V3
 parameters
 s6 scaling factor         :     1.0000 
 rs6 scaling factor        :     1.2810 
 s8 scaling factor         :     1.0000 
 rs8 scaling factor        :     1.0940 
 Damping factor alpha6     :    14.0000 
 Damping factor alpha8     :    16.0000 
 ad hoc parameters k1-k3   :    16.0000     1.3333    -4.0000 

 Edisp/kcal,au: -0.031709285204  -0.000050531957 
 E6   /kcal   :  -0.004021816 
 E8   /kcal   :  -0.027687469 
 % E8         :  87.316597452 

-------------------------   ----------------
Dispersion correction           -0.000050532
-------------------------   ----------------


-------------------------   --------------------
FINAL SINGLE POINT ENERGY      -337.581234282014
-------------------------   --------------------

                                *** OPTIMIZATION RUN DONE ***

                            ***************************************
                            *     ORCA property calculations      *
                            ***************************************

                                    ---------------------
                                    Active property flags
                                    ---------------------
   (+) Dipole Moment


------------------------------------------------------------------------------
                       ORCA ELECTRIC PROPERTIES CALCULATION
------------------------------------------------------------------------------

Dipole Moment Calculation                       ... on
Quadrupole Moment Calculation                   ... off
Polarizability Calculation                      ... off
GBWName                                         ... /beegfs/scratch/ispackman/PFAS_EPR_calcs/benchmark/JChemEd_CF3_radical/CF3_radical_97.0_degrees_IN-PROGRESS/CF3_radical_97.0_degrees.gbw
Electron density                                ... /beegfs/scratch/ispackman/PFAS_EPR_calcs/benchmark/JChemEd_CF3_radical/CF3_radical_97.0_degrees_IN-PROGRESS/CF3_radical_97.0_degrees.scfp
The origin for moment calculation is the CENTER OF MASS  = (-0.000012,  0.000000 -1.033702)

-------------
DIPOLE MOMENT
-------------
                                X             Y             Z
Electronic contribution:      0.00033      -0.00000       0.16494
Nuclear contribution   :      0.00004      -0.00000       0.33023
                        -----------------------------------------
Total Dipole Moment    :      0.00036      -0.00000       0.49516
                        -----------------------------------------
Magnitude (a.u.)       :      0.49516
Magnitude (Debye)      :      1.25860



--------------------
Rotational spectrum 
--------------------
 
Rotational constants in cm-1:     0.383083     0.383018     0.213998 
Rotational constants in MHz : 11484.539476 11482.582679  6415.493291 

 Dipole components along the rotational axes: 
x,y,z [a.u.] :    -0.000000    -0.000383     0.495162 
x,y,z [Debye]:    -0.000001    -0.000973     1.258601 

 


           ************************************************************
           *        Program running with 18 parallel MPI-processes    *
           *              working on a common directory               *
           ************************************************************

-------------------------------------------------------------------------------
                               ORCA SCF HESSIAN
-------------------------------------------------------------------------------

                   --------- SHARK INITIALIZATION DONE ---------

Hessian of the Kohn-Sham DFT energy:
Kohn-Sham wavefunction type                      ... UKS
Hartree-Fock exchange scaling                    ...    0.196
Number of operators                              ...    2
Number of atoms                                  ...    4
Basis set dimensions                             ...  157
Integral neglect threshold                       ... 2.5e-11
Integral primitive cutoff                        ... 2.5e-12

Setting up DFT Hessian calculations              ... 

HESS GRID
---------

General Integration Accuracy     IntAcc      ... 4.629
Radial Grid Type                 RadialGrid  ... OptM3 with GC (2021)
Angular Grid (max. ang.)         AngularGrid ... 5 (Lebedev-434)
Angular grid pruning method      GridPruning ... 4 (adaptive)
Weight generation scheme         WeightScheme... Becke
Basis function cutoff            BFCut       ... 1.0000e-11
Integration weight cutoff        WCut        ... 1.0000e-14
Angular grids for H and He will be reduced by one unit
Partially contracted basis set               ... off
Rotationally invariant grid construction     ... off

Total number of grid points                  ...    39985
Total number of batches                      ...      627
Average number of points per batch           ...       63
Average number of grid points per atom       ...     9996

Building densities                               ... done   (      0.0 sec)
Calculating rho(r) on the grid                   ... done   (      0.1 sec)
Building xc-kernel on the grid                   ... done   (      0.1 sec)
                                                     done   (      0.7 sec)

Nuclear repulsion Hessian  (SHARK)               ... done   (      0.0 sec)

----------------------------------------------
Forming right-hand sides of CP-SCF equations     ...
----------------------------------------------
One electron integral derivatives  (SHARK)       ... done   (      0.0 sec)
Transforming the overlap derivative matrices     ... done   (      0.0 sec)
Making the Q(x) pseudodensities                  ... done   (      0.0 sec)
Adding the E*S(x)*S(y) terms to the Hessian      ... done   (      0.0 sec)
Calculating energy weighted overlap derivatives  ... done   (      0.2 sec)
Two electron integral derivatives (SHARK-RI)     ... done   (      2.7 sec)
Exchange-correlation integral derivatives        ... done   (      2.3 sec)
tr(F(y)Q(x)) contribution to the Hessian         ... done   (      0.0 sec)
Response fock operator R(S(x)) (SHARK-RIJCOSX)   ... done   (      1.1 sec)
XC Response fock operator R(S(x))                ... done   (      0.5 sec)
tr(F(y)S(x)) contribution to the Hessian         ... done   (      0.0 sec)
Transforming and finalizing RHSs                 ... done   (      0.1 sec)

----------------------------------------------
Solving the CP-SCF equations (RIJCOSX)           ...
----------------------------------------------
     CP-SCF ITERATION   0:   1.6110e-01 (   0.6 sec   0/ 12 done)
     CP-SCF ITERATION   1:   5.8332e-02 (   0.6 sec   0/ 12 done)
     CP-SCF ITERATION   2:   2.3291e-02 (   0.6 sec   0/ 12 done)
     CP-SCF ITERATION   3:   7.0134e-03 (   0.6 sec   0/ 12 done)
     CP-SCF ITERATION   4:   2.5952e-03 (   0.6 sec   0/ 12 done)
     CP-SCF ITERATION   5:   1.1280e-03 (   0.6 sec   1/ 12 done)
     CP-SCF ITERATION   6:   3.7875e-04 (   0.6 sec   2/ 12 done)
     CP-SCF ITERATION   7:   1.0018e-04 (   0.6 sec  11/ 12 done)
     CP-SCF ITERATION   8:   3.1793e-05 (   0.5 sec  12/ 12 done)
                    *** THE CP-SCF HAS CONVERGED ***

                                                 ... done   (      5.7 sec)
Forming perturbed density Hessian contributions  ... done   (      0.0 sec)
2nd integral derivative contribs (SHARK-RI)      ... done   (      7.2 sec)
Exchange-correlation Hessian                     ... done   (      1.0 sec)
Dispersion correction in the Hessian             ... done   (      0.1 sec)
Dipole derivatives                               ... (center of mass: -0.000012,  0.000000 -1.033702)done   (      0.2 sec)

Total SCF Hessian time: 0 days 0 hours 0 min 22 sec 

Writing the Hessian file to the disk             ... done


Maximum memory used throughout the entire SCFHESS-calculation: 144.9 MB

-----------------------
VIBRATIONAL FREQUENCIES
-----------------------

Scaling factor for frequencies =  1.000000000  (already applied!)

   0:         0.00 cm**-1
   1:         0.00 cm**-1
   2:         0.00 cm**-1
   3:         0.00 cm**-1
   4:         0.00 cm**-1
   5:         0.00 cm**-1
   6:       597.31 cm**-1
   7:       598.18 cm**-1
   8:       797.28 cm**-1
   9:      1003.43 cm**-1
  10:      1004.16 cm**-1
  11:      1067.76 cm**-1


------------
NORMAL MODES
------------

These modes are the Cartesian displacements weighted by the diagonal matrix
M(i,i)=1/sqrt(m[i]) where m[i] is the mass of the displaced atom
Thus, these vectors are normalized but *not* orthogonal

                  0          1          2          3          4          5    
      0       0.000000   0.000000   0.000000   0.000000   0.000000   0.000000
      1       0.000000   0.000000   0.000000   0.000000   0.000000   0.000000
      2       0.000000   0.000000   0.000000   0.000000   0.000000   0.000000
      3       0.000000   0.000000   0.000000   0.000000   0.000000   0.000000
      4       0.000000   0.000000   0.000000   0.000000   0.000000   0.000000
      5       0.000000   0.000000   0.000000   0.000000   0.000000   0.000000
      6       0.000000   0.000000   0.000000   0.000000   0.000000   0.000000
      7       0.000000   0.000000   0.000000   0.000000   0.000000   0.000000
      8       0.000000   0.000000   0.000000   0.000000   0.000000   0.000000
      9       0.000000   0.000000   0.000000   0.000000   0.000000   0.000000
     10       0.000000   0.000000   0.000000   0.000000   0.000000   0.000000
     11       0.000000   0.000000   0.000000   0.000000   0.000000   0.000000
                  6          7          8          9         10         11    
      0      -0.292699   0.000026  -0.000572  -0.000362   0.879404  -0.002082
      1       0.000026   0.292184  -0.000000   0.879507   0.000362  -0.000001
      2      -0.000183   0.000000  -0.590324   0.000000   0.001516   0.824592
      3      -0.483944   0.000043   0.449884   0.000132  -0.318646   0.277564
      4      -0.000054  -0.607984   0.000000  -0.051271  -0.000021   0.000000
      5      -0.071598   0.000006   0.124292  -0.000089   0.214876  -0.174303
      6       0.334456  -0.473182  -0.224761   0.116174  -0.118619  -0.138124
      7       0.473648   0.211587   0.388365  -0.252435   0.117118   0.239009
      8       0.035863   0.061903   0.124463   0.186418  -0.107840  -0.173512
      9       0.334540   0.473122  -0.224761  -0.116077  -0.118715  -0.138124
     10      -0.473611   0.211671  -0.388365  -0.252339  -0.117326  -0.239009
     11       0.035851  -0.061909   0.124463  -0.186329  -0.107994  -0.173512


-----------
IR SPECTRUM
-----------

 Mode   freq       eps      Int      T**2         TX        TY        TZ
       cm**-1   L/(mol*cm) km/mol    a.u.
----------------------------------------------------------------------------
  6:    597.31   0.000297    1.50  0.000155  (-0.012449  0.000001 -0.000019)
  7:    598.18   0.000293    1.48  0.000153  ( 0.000001  0.012356  0.000000)
  8:    797.28   0.002978   15.05  0.001166  (-0.000123 -0.000000 -0.034142)
  9:   1003.43   0.057242  289.28  0.017802  (-0.000055  0.133424  0.000000)
 10:   1004.16   0.057287  289.50  0.017803  ( 0.133428  0.000055  0.000101)
 11:   1067.76   0.008728   44.11  0.002551  (-0.000354 -0.000000  0.050503)

* The epsilon (eps) is given for a Dirac delta lineshape.
** The dipole moment derivative (T) already includes vibrational overlap.

The first frequency considered to be a vibration is 6
The total number of vibrations considered is 6


--------------------------
THERMOCHEMISTRY AT 298.15K
--------------------------

Temperature         ... 298.15 K
Pressure            ... 1.00 atm
Total Mass          ... 69.00 AMU

Throughout the following assumptions are being made:
  (1) The electronic state is orbitally nondegenerate
      but the spin degeneracy is treated
  (2) There are no thermally accessible electronically excited states
  (3) Hindered rotations indicated by low frequency modes are not
      treated as such but are treated as vibrations and this may
      cause some error
  (4) All equations used are the standard statistical mechanics
      equations for an ideal gas
  (5) All vibrations are strictly harmonic

freq.     597.31  E(vib)   ...       0.10 
freq.     598.18  E(vib)   ...       0.10 
freq.     797.28  E(vib)   ...       0.05 
freq.    1003.43  E(vib)   ...       0.02 
freq.    1004.16  E(vib)   ...       0.02 
freq.    1067.76  E(vib)   ...       0.02 

------------
INNER ENERGY
------------

The inner energy is: U= E(el) + E(ZPE) + E(vib) + E(rot) + E(trans)
    E(el)   - is the total energy from the electronic structure calculation
              = E(kin-el) + E(nuc-el) + E(el-el) + E(nuc-nuc)
    E(ZPE)  - the the zero temperature vibrational energy from the frequency calculation
    E(vib)  - the the finite temperature correction to E(ZPE) due to population
              of excited vibrational states
    E(rot)  - is the rotational thermal energy
    E(trans)- is the translational thermal energy

Summary of contributions to the inner energy U:
Electronic energy                ...   -337.58123428 Eh
Zero point energy                ...      0.01154603 Eh       7.25 kcal/mol
Thermal vibrational correction   ...      0.00050256 Eh       0.32 kcal/mol
Thermal rotational correction    ...      0.00141627 Eh       0.89 kcal/mol
Thermal translational correction ...      0.00141627 Eh       0.89 kcal/mol
-----------------------------------------------------------------------
Total thermal energy                   -337.56635315 Eh


Summary of corrections to the electronic energy:
(perhaps to be used in another calculation)
Total thermal correction                  0.00333510 Eh       2.09 kcal/mol
Non-thermal (ZPE) correction              0.01154603 Eh       7.25 kcal/mol
-----------------------------------------------------------------------
Total correction                          0.01488113 Eh       9.34 kcal/mol


--------
ENTHALPY
--------

The enthalpy is H = U + kB*T
                kB is Boltzmann's constant
Total free energy                 ...   -337.56635315 Eh 
Thermal Enthalpy correction       ...      0.00094421 Eh       0.59 kcal/mol
-----------------------------------------------------------------------
Total Enthalpy                    ...   -337.56540894 Eh


Note: Rotational entropy computed according to Herzberg 
Infrared and Raman Spectra, Chapter V,1, Van Nostrand Reinhold, 1945 
Point Group:  Cs, Symmetry Number:   1  
Rotational constants in cm-1:     0.383083     0.383018     0.213998 

Vibrational entropy computed according to the QRRHO of S. Grimme
Chem.Eur.J. 2012 18 9955


-------
ENTROPY
-------

The entropy contributions are T*S = T*(S(el)+S(vib)+S(rot)+S(trans))
     S(el)   - electronic entropy
     S(vib)  - vibrational entropy
     S(rot)  - rotational entropy
     S(trans)- translational entropy
The entropies will be listed as multiplied by the temperature to get
units of energy

Electronic entropy                ...      0.00065446 Eh      0.41 kcal/mol
Vibrational entropy               ...      0.00065250 Eh      0.41 kcal/mol
Rotational entropy                ...      0.01114470 Eh      6.99 kcal/mol
Translational entropy             ...      0.01834582 Eh     11.51 kcal/mol
-----------------------------------------------------------------------
Final entropy term                ...      0.03079748 Eh     19.33 kcal/mol

In case the symmetry of your molecule has not been determined correctly
or in case you have a reason to use a different symmetry number we print 
out the resulting rotational entropy values for sn=1,12 :
 --------------------------------------------------------
|  sn= 1 | S(rot)=       0.01114470 Eh      6.99 kcal/mol|
|  sn= 2 | S(rot)=       0.01049024 Eh      6.58 kcal/mol|
|  sn= 3 | S(rot)=       0.01010741 Eh      6.34 kcal/mol|
|  sn= 4 | S(rot)=       0.00983579 Eh      6.17 kcal/mol|
|  sn= 5 | S(rot)=       0.00962510 Eh      6.04 kcal/mol|
|  sn= 6 | S(rot)=       0.00945295 Eh      5.93 kcal/mol|
|  sn= 7 | S(rot)=       0.00930741 Eh      5.84 kcal/mol|
|  sn= 8 | S(rot)=       0.00918133 Eh      5.76 kcal/mol|
|  sn= 9 | S(rot)=       0.00907012 Eh      5.69 kcal/mol|
|  sn=10 | S(rot)=       0.00897064 Eh      5.63 kcal/mol|
|  sn=11 | S(rot)=       0.00888065 Eh      5.57 kcal/mol|
|  sn=12 | S(rot)=       0.00879850 Eh      5.52 kcal/mol|
 --------------------------------------------------------


-------------------
GIBBS FREE ENERGY
-------------------

The Gibbs free energy is G = H - T*S

Total enthalpy                    ...   -337.56540894 Eh 
Total entropy correction          ...     -0.03079748 Eh    -19.33 kcal/mol
-----------------------------------------------------------------------
Final Gibbs free energy         ...   -337.59620642 Eh

For completeness - the Gibbs free energy minus the electronic energy
G-E(el)                           ...     -0.01497214 Eh     -9.40 kcal/mol


Timings for individual modules:

Sum of individual times         ...      147.330 sec (=   2.455 min)
GTO integral calculation        ...       17.158 sec (=   0.286 min)  11.6 %
SCF iterations                  ...       88.899 sec (=   1.482 min)  60.3 %
SCF Gradient evaluation         ...       16.106 sec (=   0.268 min)  10.9 %
Geometry relaxation             ...        0.273 sec (=   0.005 min)   0.2 %
Analytical frequency calculation...       24.893 sec (=   0.415 min)  16.9 %
                             ****ORCA TERMINATED NORMALLY****
TOTAL RUN TIME: 0 days 0 hours 2 minutes 44 seconds 517 msec

slurmID:    32260085
totalRuntime[s]:    164.554602302
