
                                 *****************
                                 * O   R   C   A *
                                 *****************

                                            #,                                       
                                            ###                                      
                                            ####                                     
                                            #####                                    
                                            ######                                   
                                           ########,                                 
                                     ,,################,,,,,                         
                               ,,#################################,,                 
                          ,,##########################################,,             
                       ,#########################################, ''#####,          
                    ,#############################################,,   '####,        
                  ,##################################################,,,,####,       
                ,###########''''           ''''###############################       
              ,#####''   ,,,,##########,,,,          '''####'''          '####       
            ,##' ,,,,###########################,,,                        '##       
           ' ,,###''''                  '''############,,,                           
         ,,##''                                '''############,,,,        ,,,,,,###''
      ,#''                                            '''#######################'''  
     '                                                          ''''####''''         
             ,#######,   #######,   ,#######,      ##                                
            ,#'     '#,  ##    ##  ,#'     '#,    #''#        ######   ,####,        
            ##       ##  ##   ,#'  ##            #'  '#       #        #'  '#        
            ##       ##  #######   ##           ,######,      #####,   #    #        
            '#,     ,#'  ##    ##  '#,     ,#' ,#      #,         ##   #,  ,#        
             '#######'   ##     ##  '#######'  #'      '#     #####' # '####'        



                  #######################################################
                  #                        -***-                        #
                  #          Department of theory and spectroscopy      #
                  #    Directorship and core code : Frank Neese         #
                  #        Max Planck Institute fuer Kohlenforschung    #
                  #                Kaiser Wilhelm Platz 1               #
                  #                 D-45470 Muelheim/Ruhr               #
                  #                      Germany                        #
                  #                                                     #
                  #                  All rights reserved                #
                  #                        -***-                        #
                  #######################################################


                         Program Version 5.0.4 -  RELEASE  -


 With contributions from (in alphabetic order):
   Daniel Aravena         : Magnetic Suceptibility
   Michael Atanasov       : Ab Initio Ligand Field Theory (pilot matlab implementation)
   Alexander A. Auer      : GIAO ZORA, VPT2 properties, NMR spectrum
   Ute Becker             : Parallelization
   Giovanni Bistoni       : ED, misc. LED, open-shell LED, HFLD
   Martin Brehm           : Molecular dynamics
   Dmytro Bykov           : SCF Hessian
   Vijay G. Chilkuri      : MRCI spin determinant printing, contributions to CSF-ICE
   Dipayan Datta          : RHF DLPNO-CCSD density
   Achintya Kumar Dutta   : EOM-CC, STEOM-CC
   Dmitry Ganyushin       : Spin-Orbit,Spin-Spin,Magnetic field MRCI
   Miquel Garcia          : C-PCM and meta-GGA Hessian, CC/C-PCM, Gaussian charge scheme
   Yang Guo               : DLPNO-NEVPT2, F12-NEVPT2, CIM, IAO-localization
   Andreas Hansen         : Spin unrestricted coupled pair/coupled cluster methods
   Benjamin Helmich-Paris : MC-RPA, TRAH-SCF, COSX integrals
   Lee Huntington         : MR-EOM, pCC
   Robert Izsak           : Overlap fitted RIJCOSX, COSX-SCS-MP3, EOM
   Marcus Kettner         : VPT2
   Christian Kollmar      : KDIIS, OOCD, Brueckner-CCSD(T), CCSD density, CASPT2, CASPT2-K
   Simone Kossmann        : Meta GGA functionals, TD-DFT gradient, OOMP2, MP2 Hessian
   Martin Krupicka        : Initial AUTO-CI
   Lucas Lang             : DCDCAS
   Marvin Lechner         : AUTO-CI (C++ implementation), FIC-MRCC
   Dagmar Lenk            : GEPOL surface, SMD
   Dimitrios Liakos       : Extrapolation schemes; Compound Job, initial MDCI parallelization
   Dimitrios Manganas     : Further ROCIS development; embedding schemes
   Dimitrios Pantazis     : SARC Basis sets
   Anastasios Papadopoulos: AUTO-CI, single reference methods and gradients
   Taras Petrenko         : DFT Hessian,TD-DFT gradient, ASA, ECA, R-Raman, ABS, FL, XAS/XES, NRVS
   Peter Pinski           : DLPNO-MP2, DLPNO-MP2 Gradient
   Christoph Reimann      : Effective Core Potentials
   Marius Retegan         : Local ZFS, SOC
   Christoph Riplinger    : Optimizer, TS searches, QM/MM, DLPNO-CCSD(T), (RO)-DLPNO pert. Triples
   Tobias Risthaus        : Range-separated hybrids, TD-DFT gradient, RPA, STAB
   Michael Roemelt        : Original ROCIS implementation
   Masaaki Saitow         : Open-shell DLPNO-CCSD energy and density
   Barbara Sandhoefer     : DKH picture change effects
   Avijit Sen             : IP-ROCIS
   Kantharuban Sivalingam : CASSCF convergence, NEVPT2, FIC-MRCI
   Bernardo de Souza      : ESD, SOC TD-DFT
   Georgi Stoychev        : AutoAux, RI-MP2 NMR, DLPNO-MP2 response
   Willem Van den Heuvel  : Paramagnetic NMR
   Boris Wezisla          : Elementary symmetry handling
   Frank Wennmohs         : Technical directorship


 We gratefully acknowledge several colleagues who have allowed us to
 interface, adapt or use parts of their codes:
   Stefan Grimme, W. Hujo, H. Kruse, P. Pracht,  : VdW corrections, initial TS optimization,
                  C. Bannwarth, S. Ehlert          DFT functionals, gCP, sTDA/sTD-DF
   Ed Valeev, F. Pavosevic, A. Kumar             : LibInt (2-el integral package), F12 methods
   Garnet Chan, S. Sharma, J. Yang, R. Olivares  : DMRG
   Ulf Ekstrom                                   : XCFun DFT Library
   Mihaly Kallay                                 : mrcc  (arbitrary order and MRCC methods)
   Jiri Pittner, Ondrej Demel                    : Mk-CCSD
   Frank Weinhold                                : gennbo (NPA and NBO analysis)
   Christopher J. Cramer and Donald G. Truhlar   : smd solvation model
   Lars Goerigk                                  : TD-DFT with DH, B97 family of functionals
   V. Asgeirsson, H. Jonsson                     : NEB implementation
   FAccTs GmbH                                   : IRC, NEB, NEB-TS, DLPNO-Multilevel, CI-OPT
                                                   MM, QMMM, 2- and 3-layer-ONIOM, Crystal-QMMM,
                                                   LR-CPCM, SF, NACMEs, symmetry and pop. for TD-DFT,
                                                   nearIR, NL-DFT gradient (VV10), updates on ESD,
                                                   ML-optimized integration grids
   S Lehtola, MJT Oliveira, MAL Marques          : LibXC Library
   Liviu Ungur et al                             : ANISO software


 Your calculation uses the libint2 library for the computation of 2-el integrals
 For citations please refer to: http://libint.valeyev.net

 Your ORCA version has been built with support for libXC version: 5.1.0
 For citations please refer to: https://tddft.org/programs/libxc/

 This ORCA versions uses:
   CBLAS   interface :  Fast vector & matrix operations
   LAPACKE interface :  Fast linear algebra routines
   SCALAPACK package :  Parallel linear algebra routines
   Shared memory     :  Shared parallel matrices
   BLAS/LAPACK       :  OpenBLAS 0.3.15  USE64BITINT DYNAMIC_ARCH NO_AFFINITY SkylakeX SINGLE_THREADED
        Core in use  :  SkylakeX
   Copyright (c) 2011-2014, The OpenBLAS Project


Your calculation utilizes the atom-pairwise dispersion correction
with the zero-damping scheme (D30)
Cite in your paper:
S.Grimme, J.Antony, S.Ehrlich and H.Krieg, J.Chem.Phys., 132, (2010), 154104 
   

XCFun DFT library Copyright 2009-2010 Ulf Ekstrom and contributors.
See http://admol.org/xcfun for more information.
This is free software; see the source code for copying conditions.
There is ABSOLUTELY NO WARRANTY; not even for MERCHANTABILITY or FITNESS FOR A PARTICULAR PURPOSE.
For details see the documentation.
Scientific users of this library should cite U. Ekstrom, L. Visscher, R. Bast, A. J. Thorvaldsen and K. Ruud;
J.Chem.Theor.Comp. 2010, DOI: 10.1021/ct100117s
XCFun Version 0.99 

================================================================================

----- Orbital basis set information -----
Your calculation utilizes the basis: def2-TZVPD
   F. Weigend and R. Ahlrichs, Phys. Chem. Chem. Phys. 7, 3297 (2005).
   D. Rappoport and F. Furche, J. Chem. Phys. 133 134105 (2010).

----- AuxJ basis set information -----
Your calculation utilizes the auxiliary basis: def2/J
   F. Weigend, Phys. Chem. Chem. Phys. 8, 1057 (2006).

================================================================================
                                        WARNINGS
                       Please study these warnings very carefully!
================================================================================


WARNING: Geometry Optimization
  ===> : Switching off AutoStart
         For restart on a previous wavefunction, please use MOREAD

INFO   : the flag for use of the SHARK integral package has been found!

================================================================================
                                       INPUT FILE
================================================================================
NAME = /beegfs/scratch/ispackman/PFAS_EPR_calcs/benchmark/JChemEd_CF3_radical/CF3_radical_102.0_degrees_IN-PROGRESS/CF3_radical_102.0_degrees.inp
|  1> ! UKS TightSCF wB97x-D3 def2-TZVPD xyzfile opt freq
|  2> 
|  3> # CF3 radical 102.0 degrees fixed
|  4> 
|  5> %maxcore 1000
|  6> %pal
|  7> nprocs 18
|  8> end
|  9> 
| 10> %geom Constraints
| 11>         { A * 0 * C }
| 12>     end
| 13> end
| 14> * xyz 0 2
| 15> C 0.00 0.00 0.00
| 16> F 1.1800426810 0.0000000000 -0.5802794766
| 17> F -0.5900213405 1.0219469393 -0.5802794766
| 18> F -0.5900213405 -1.0219469393 -0.5802794766
| 19> **                         ****END OF INPUT****
================================================================================

                       *****************************
                       * Geometry Optimization Run *
                       *****************************

Geometry optimization settings:
Update method            Update   .... BFGS
Choice of coordinates    CoordSys .... Z-matrix Internals
Initial Hessian          InHess   .... Almoef's Model

Convergence Tolerances:
Energy Change            TolE     ....  5.0000e-06 Eh
Max. Gradient            TolMAXG  ....  3.0000e-04 Eh/bohr
RMS Gradient             TolRMSG  ....  1.0000e-04 Eh/bohr
Max. Displacement        TolMAXD  ....  4.0000e-03 bohr
RMS Displacement         TolRMSD  ....  2.0000e-03 bohr
Strict Convergence                ....  False
------------------------------------------------------------------------------
                        ORCA OPTIMIZATION COORDINATE SETUP
------------------------------------------------------------------------------

The optimization will be done in new redundant internal coordinates
Making redundant internal coordinates   ...  (new redundants) done
Evaluating the initial hessian          ...  (Almloef) done
Evaluating the coordinates              ...  done
Calculating the B-matrix                .... done
Calculating the G-matrix                .... done
Diagonalizing the G-matrix              .... done
Imposing constraints:
 Iter   0:  RMS(Cart)=    0.0000000000 RMS(Int)=    0.0000000000
CONVERGED
Will constrain atom 0 coordinate 1 
Will constrain atom 0 coordinate 2 
Will constrain atom 1 coordinate 2 
The first mode is                       ....    1
The number of degrees of freedom        ....    6
Storing new coordinates                 .... done

    -----------------------------------------------------------------
                    Redundant Internal Coordinates


    -----------------------------------------------------------------
         Definition                    Initial Value    Approx d2E/dq
    -----------------------------------------------------------------
      1. B(F   1,C   0)                  1.3150         0.684896   
      2. B(F   2,C   0)                  1.3150         0.684896   
      3. B(F   3,C   0)                  1.3150         0.684896   
      4. A(F   2,C   0,F   3)          102.0000         0.440101 C 
      5. A(F   1,C   0,F   2)          102.0000         0.440101 C 
      6. A(F   1,C   0,F   3)          102.0000         0.440101 C 
      7. I(F   1,F   3,F   2,C   0)     70.7085         0.003527   
    -----------------------------------------------------------------

Number of atoms                         .... 4
Number of degrees of freedom            .... 7

         *************************************************************
         *                GEOMETRY OPTIMIZATION CYCLE   1            *
         *************************************************************
---------------------------------
CARTESIAN COORDINATES (ANGSTROEM)
---------------------------------
  C      0.000000    0.000000    0.000000
  F      1.180043    0.000000   -0.580279
  F     -0.590021    1.021947   -0.580279
  F     -0.590021   -1.021947   -0.580279

----------------------------
CARTESIAN COORDINATES (A.U.)
----------------------------
  NO LB      ZA    FRAG     MASS         X           Y           Z
   0 C     6.0000    0    12.011    0.000000    0.000000    0.000000
   1 F     9.0000    0    18.998    2.229957    0.000000   -1.096569
   2 F     9.0000    0    18.998   -1.114979    1.931200   -1.096569
   3 F     9.0000    0    18.998   -1.114979   -1.931200   -1.096569

--------------------------------
INTERNAL COORDINATES (ANGSTROEM)
--------------------------------
 C      0   0   0     0.000000000000     0.00000000     0.00000000
 F      1   0   0     1.314999999979     0.00000000     0.00000000
 F      1   2   0     1.314999999982   102.00000000     0.00000000
 F      1   2   3     1.314999999982   102.00000000   105.21759380

---------------------------
INTERNAL COORDINATES (A.U.)
---------------------------
 C      0   0   0     0.000000000000     0.00000000     0.00000000
 F      1   0   0     2.484989866067     0.00000000     0.00000000
 F      1   2   0     2.484989866073   102.00000000     0.00000000
 F      1   2   3     2.484989866073   102.00000000   105.21759380

---------------------
BASIS SET INFORMATION
---------------------
There are 2 groups of distinct atoms

 Group   1 Type C   : 12s6p3d1f contracted to 6s3p3d1f pattern {621111/411/111/1}
 Group   2 Type F   : 12s7p3d1f contracted to 6s4p3d1f pattern {621111/4111/111/1}

Atom   0C    basis set group =>   1
Atom   1F    basis set group =>   2
Atom   2F    basis set group =>   2
Atom   3F    basis set group =>   2
---------------------------------
AUXILIARY/J BASIS SET INFORMATION
---------------------------------
There are 2 groups of distinct atoms

 Group   1 Type C   : 12s5p4d2f1g contracted to 6s4p3d1f1g pattern {711111/2111/211/2/1}
 Group   2 Type F   : 12s5p4d2f1g contracted to 6s4p3d1f1g pattern {711111/2111/211/2/1}

Atom   0C    basis set group =>   1
Atom   1F    basis set group =>   2
Atom   2F    basis set group =>   2
Atom   3F    basis set group =>   2


           ************************************************************
           *        Program running with 18 parallel MPI-processes    *
           *              working on a common directory               *
           ************************************************************
------------------------------------------------------------------------------
                           ORCA GTO INTEGRAL CALCULATION
                           -- RI-GTO INTEGRALS CHOSEN --
------------------------------------------------------------------------------
------------------------------------------------------------------------------
                   ___                                                        
                  /   \      - P O W E R E D   B Y -                         
                 /     \                                                     
                 |  |  |   _    _      __       _____    __    __             
                 |  |  |  | |  | |    /  \     |  _  \  |  |  /  |          
                  \  \/   | |  | |   /    \    | | | |  |  | /  /          
                 / \  \   | |__| |  /  /\  \   | |_| |  |  |/  /          
                |  |  |   |  __  | /  /__\  \  |    /   |      \           
                |  |  |   | |  | | |   __   |  |    \   |  |\   \          
                \     /   | |  | | |  |  |  |  | |\  \  |  | \   \       
                 \___/    |_|  |_| |__|  |__|  |_| \__\ |__|  \__/        
                                                                              
                      - O R C A' S   B I G   F R I E N D -                    
                                      &                                       
                       - I N T E G R A L  F E E D E R -                       
                                                                              
 v1 FN, 2020, v2 2021                                                         
------------------------------------------------------------------------------


Reading SHARK input file /beegfs/scratch/ispackman/PFAS_EPR_calcs/benchmark/JChemEd_CF3_radical/CF3_radical_102.0_degrees_IN-PROGRESS/CF3_radical_102.0_degrees.SHARKINP.tmp ... ok
----------------------
SHARK INTEGRAL PACKAGE
----------------------

Number of atoms                             ...      4
Number of basis functions                   ...    157
Number of shells                            ...     55
Maximum angular momentum                    ...      3
Integral batch strategy                     ... SHARK/LIBINT Hybrid
RI-J (if used) integral strategy            ... SPLIT-RIJ (Revised 2003 algorithm where possible)
Printlevel                                  ...      1
Contraction scheme used                     ... SEGMENTED contraction
Coulomb Range Separation                    ... NOT USED
Exchange Range Separation                   ... Long Range
   Mu parameter                             ...  0.250000
   Scaling (regular/separated)              ...  0.195728  0.804272
Finite Nucleus Model                        ... NOT USED
Auxiliary Coulomb fitting basis             ... AVAILABLE
   # of basis functions in Aux-J            ...    196
   # of shells in Aux-J                     ...     60
   Maximum angular momentum in Aux-J        ...      4
Auxiliary J/K fitting basis                 ... NOT available
Auxiliary Correlation fitting basis         ... NOT available
Auxiliary 'external' fitting basis          ... NOT available
Integral threshold                          ...     2.500000e-11
Primitive cut-off                           ...     2.500000e-12
Primitive pair pre-selection threshold      ...     2.500000e-12

Calculating pre-screening integrals         ... done (  0.0 sec) Dimension = 55
Organizing shell pair data                  ... done (  0.0 sec)
Shell pair information
Total number of shell pairs                 ...      1540
Shell pairs after pre-screening             ...      1510
Total number of primitive shell pairs       ...      4274
Primitive shell pairs kept                  ...      3581
          la=0 lb=0:    282 shell pairs
          la=1 lb=0:    360 shell pairs
          la=1 lb=1:    120 shell pairs
          la=2 lb=0:    276 shell pairs
          la=2 lb=1:    180 shell pairs
          la=2 lb=2:     78 shell pairs
          la=3 lb=0:     96 shell pairs
          la=3 lb=1:     60 shell pairs
          la=3 lb=2:     48 shell pairs
          la=3 lb=3:     10 shell pairs

Calculating one electron integrals          ... done (  0.0 sec)
Calculating RI/J V-Matrix + Cholesky decomp.... done (  2.2 sec)
Calculating Nuclear repulsion               ... done (  0.0 sec) ENN=    128.105668197302 Eh

SHARK setup successfully completed in  11.6 seconds

Maximum memory used throughout the entire GTOINT-calculation: 15.2 MB


           ************************************************************
           *        Program running with 18 parallel MPI-processes    *
           *              working on a common directory               *
           ************************************************************
-------------------------------------------------------------------------------
                                 ORCA SCF
-------------------------------------------------------------------------------

------------
SCF SETTINGS
------------
Hamiltonian:
 Density Functional     Method          .... DFT(GTOs)
 Exchange Functional    Exchange        .... WB97X-D3
 Correlation Functional Correlation     .... WB97X-D3
 Gradients option       PostSCFGGA      .... off
 Hybrid DFT is turned on
   Fraction HF Exchange ScalHFX         ....  0.195728
   Scaling of DF-GGA-X  ScalDFX         ....  0.000000
   Scaling of DF-GGA-C  ScalDFC         ....  1.000000
   Scaling of DF-LDA-C  ScalLDAC        ....  1.000000
   Perturbative correction              ....  0.000000
   Density functional embedding theory  .... OFF
 Long-range corrected/Screened/Range-Separated Hybrid DFT is turned on
   Amount of maximum screened exact exchange              ....  0.804272
   Range separation parameter mu (erf(mu*r12)/r12)        ....  0.250000
 RI-approximation to the Coulomb term is turned on
   Number of AuxJ basis functions       .... 196
   RIJ-COSX (HFX calculated with COS-X)).... on


General Settings:
 Integral files         IntName         .... /beegfs/scratch/ispackman/PFAS_EPR_calcs/benchmark/JChemEd_CF3_radical/CF3_radical_102.0_degrees_IN-PROGRESS/CF3_radical_102.0_degrees
 Hartree-Fock type      HFTyp           .... UHF
 Total Charge           Charge          ....    0
 Multiplicity           Mult            ....    2
 Number of Electrons    NEL             ....   33
 Basis Dimension        Dim             ....  157
 Nuclear Repulsion      ENuc            ....    128.1056681973 Eh

Convergence Acceleration:
 DIIS                   CNVDIIS         .... on
   Start iteration      DIISMaxIt       ....    12
   Startup error        DIISStart       ....  0.200000
   # of expansion vecs  DIISMaxEq       ....     5
   Bias factor          DIISBfac        ....   1.050
   Max. coefficient     DIISMaxC        ....  10.000
 Trust-Rad. Augm. Hess. CNVTRAH         .... auto
   Auto Start mean grad. ratio tolernc. ....  1.125000
   Auto Start start iteration           ....    20
   Auto Start num. interpolation iter.  ....    10
   Max. Number of Micro iterations      ....    16
   Max. Number of Macro iterations      .... Maxiter - #DIIS iter
   Number of Davidson start vectors     ....     2
   Converg. threshold I  (grad. norm)   ....   1.000e-05
   Converg. threshold II (energy diff.) ....   1.000e-08
   Grad. Scal. Fac. for Micro threshold ....   0.100
   Minimum threshold for Micro iter.    ....   0.010
   NR start threshold (gradient norm)   ....   0.001
   Initial trust radius                 ....   0.400
   Minimum AH scaling param. (alpha)    ....   1.000
   Maximum AH scaling param. (alpha)    .... 1000.000
   Orbital update algorithm             .... Taylor
   White noise on init. David. guess    .... on
   Maximum white noise                  ....   0.010
   Quad. conv. algorithm                .... NR
 SOSCF                  CNVSOSCF        .... off
 Level Shifting         CNVShift        .... on
   Level shift para.    LevelShift      ....    0.2500
   Turn off err/grad.   ShiftErr        ....    0.0010
 Zerner damping         CNVZerner       .... off
 Static damping         CNVDamp         .... on
   Fraction old density DampFac         ....    0.7000
   Max. Damping (<1)    DampMax         ....    0.9800
   Min. Damping (>=0)   DampMin         ....    0.0000
   Turn off err/grad.   DampErr         ....    0.1000
 Fernandez-Rico         CNVRico         .... off

SCF Procedure:
 Maximum # iterations   MaxIter         ....   125
 SCF integral mode      SCFMode         .... Direct
   Integral package                     .... SHARK and LIBINT hybrid scheme
 Reset frequency        DirectResetFreq ....    20
 Integral Threshold     Thresh          ....  2.500e-11 Eh
 Primitive CutOff       TCut            ....  2.500e-12 Eh

Convergence Tolerance:
 Convergence Check Mode ConvCheckMode   .... Total+1el-Energy
 Convergence forced     ConvForced      .... 0
 Energy Change          TolE            ....  1.000e-08 Eh
 1-El. energy change                    ....  1.000e-05 Eh
 DIIS Error             TolErr          ....  5.000e-07


Diagonalization of the overlap matrix:
Smallest eigenvalue                        ... 3.540e-04
Time for diagonalization                   ...    0.006 sec
Threshold for overlap eigenvalues          ... 1.000e-08
Number of eigenvalues below threshold      ... 0
Time for construction of square roots      ...    0.071 sec
Total time needed                          ...    0.079 sec

Time for model grid setup =    0.136 sec

------------------------------
INITIAL GUESS: MODEL POTENTIAL
------------------------------
Loading Hartree-Fock densities                     ... done
Calculating cut-offs                               ... done
Initializing the effective Hamiltonian             ... done
Setting up the integral package (SHARK)            ... done
Starting the Coulomb interaction                   ... done (   1.1 sec)
Reading the grid                                   ... done
Mapping shells                                     ... done
Starting the XC term evaluation                    ... done (   0.0 sec)
  promolecular density results
     # of electrons  =     33.000330098
     EX              =    -35.102351172
     EC              =     -1.147772496
     EX+EC           =    -36.250123668
Transforming the Hamiltonian                       ... done (   0.0 sec)
Diagonalizing the Hamiltonian                      ... done (   0.0 sec)
Back transforming the eigenvectors                 ... done (   0.0 sec)
Now organizing SCF variables                       ... done
                      ------------------
                      INITIAL GUESS DONE (   1.4 sec)
                      ------------------
-------------------
DFT GRID GENERATION
-------------------

General Integration Accuracy     IntAcc      ... 4.388
Radial Grid Type                 RadialGrid  ... OptM3 with GC (2021)
Angular Grid (max. ang.)         AngularGrid ... 4 (Lebedev-302)
Angular grid pruning method      GridPruning ... 4 (adaptive)
Weight generation scheme         WeightScheme... Becke
Basis function cutoff            BFCut       ... 1.0000e-11
Integration weight cutoff        WCut        ... 1.0000e-14
Angular grids for H and He will be reduced by one unit
Partially contracted basis set               ... off
Rotationally invariant grid construction     ... off

Total number of grid points                  ...    25777
Total number of batches                      ...      405
Average number of points per batch           ...       63
Average number of grid points per atom       ...     6444
Time for grid setup =    0.204 sec

--------------------
COSX GRID GENERATION
--------------------

GRIDX 1
-------
General Integration Accuracy     IntAcc      ... 3.816
Radial Grid Type                 RadialGrid  ... OptM3 with GC (2021)
Angular Grid (max. ang.)         AngularGrid ... 1 (Lebedev-50)
Angular grid pruning method      GridPruning ... 4 (adaptive)
Weight generation scheme         WeightScheme... Becke
Basis function cutoff            BFCut       ... 1.0000e-11
Integration weight cutoff        WCut        ... 1.0000e-14
Angular grids for H and He will be reduced by one unit
Partially contracted basis set               ... on
Rotationally invariant grid construction     ... off

Total number of grid points                  ...     3272
Total number of batches                      ...       53
Average number of points per batch           ...       61
Average number of grid points per atom       ...      818
UseSFitting                                  ... on

GRIDX 2
-------
General Integration Accuracy     IntAcc      ... 4.020
Radial Grid Type                 RadialGrid  ... OptM3 with GC (2021)
Angular Grid (max. ang.)         AngularGrid ... 2 (Lebedev-110)
Angular grid pruning method      GridPruning ... 4 (adaptive)
Weight generation scheme         WeightScheme... Becke
Basis function cutoff            BFCut       ... 1.0000e-11
Integration weight cutoff        WCut        ... 1.0000e-14
Angular grids for H and He will be reduced by one unit
Partially contracted basis set               ... on
Rotationally invariant grid construction     ... off

Total number of grid points                  ...     9115
Total number of batches                      ...      145
Average number of points per batch           ...       62
Average number of grid points per atom       ...     2279
UseSFitting                                  ... on

GRIDX 3
-------
General Integration Accuracy     IntAcc      ... 4.338
Radial Grid Type                 RadialGrid  ... OptM3 with GC (2021)
Angular Grid (max. ang.)         AngularGrid ... 3 (Lebedev-194)
Angular grid pruning method      GridPruning ... 4 (adaptive)
Weight generation scheme         WeightScheme... Becke
Basis function cutoff            BFCut       ... 1.0000e-11
Integration weight cutoff        WCut        ... 1.0000e-14
Angular grids for H and He will be reduced by one unit
Partially contracted basis set               ... on
Rotationally invariant grid construction     ... off

Total number of grid points                  ...    19675
Total number of batches                      ...      310
Average number of points per batch           ...       63
Average number of grid points per atom       ...     4919
UseSFitting                                  ... on

Time for X-Grid setup             =    0.749 sec

--------------
SCF ITERATIONS
--------------
ITER       Energy         Delta-E        Max-DP      RMS-DP      [F,P]     Damp
               ***  Starting incremental Fock matrix formation  ***
  0   -337.5459588922   0.000000000000 0.01710559  0.00039747  0.0663728 0.7000
  1   -337.5729215846  -0.026962692447 0.00992991  0.00026534  0.0312789 0.7000
                               ***Turning on DIIS***
  2   -337.5841805272  -0.011258942582 0.02401129  0.00050722  0.0165575 0.0000
  3   -337.6042727618  -0.020092234607 0.00650159  0.00014898  0.0148124 0.0000
  4   -337.6074660630  -0.003193301200 0.00511516  0.00008413  0.0035494 0.0000
  5   -337.6076894824  -0.000223419423 0.00292787  0.00005037  0.0020888 0.0000
  6   -337.6077578597  -0.000068377259 0.00278351  0.00004642  0.0008698 0.0000
               *** Restarting incremental Fock matrix formation ***
                                   *** Resetting DIIS ***
  7   -337.6077864046  -0.000028544943 0.00051691  0.00000789  0.0001761 0.0000
  8   -337.6077871814  -0.000000776747 0.00010483  0.00000219  0.0000910 0.0000
  9   -337.6077873648  -0.000000183422 0.00005769  0.00000142  0.0000862 0.0000
 10   -337.6077874467  -0.000000081873 0.00004485  0.00000056  0.0000125 0.0000
                 **** Energy Check signals convergence ****

               *****************************************************
               *                     SUCCESS                       *
               *           SCF CONVERGED AFTER  11 CYCLES          *
               *****************************************************

Old exchange energy                            =    -10.541845837 Eh
New exchange energy                            =    -10.541823226 Eh
Exchange energy change after final integration =      0.000022611 Eh
Total energy after final integration           =   -337.607764839 Eh
Final COS-X integration done in                =     0.397 sec

----------------
TOTAL SCF ENERGY
----------------

Total Energy       :         -337.60776484 Eh           -9186.77433 eV

Components:
Nuclear Repulsion  :          128.10566820 Eh            3485.93245 eV
Electronic Energy  :         -465.71343304 Eh          -12672.70678 eV
One Electron Energy:         -723.12734363 Eh          -19677.29539 eV
Two Electron Energy:          257.41391060 Eh            7004.58861 eV
Max COSX asymmetry :            0.00000039 Eh               0.00001 eV

Virial components:
Potential Energy   :         -674.38127345 Eh          -18350.84739 eV
Kinetic Energy     :          336.77350861 Eh            9164.07306 eV
Virial Ratio       :            2.00247720


DFT components:
N(Alpha)           :       16.999884930382 electrons
N(Beta)            :       15.999898454427 electrons
N(Total)           :       32.999783384808 electrons
E(XC)              :      -26.212309012186 Eh       
DFET-embed. en.    :        0.000000000000 Eh       

---------------
SCF CONVERGENCE
---------------

  Last Energy change         ...   -2.7551e-09  Tolerance :   1.0000e-08
  Last MAX-Density change    ...    0.0000e+00  Tolerance :   1.0000e-07
  Last RMS-Density change    ...    0.0000e+00  Tolerance :   5.0000e-09
  Last DIIS Error            ...    1.9694e-06  Tolerance :   5.0000e-07

             **** THE GBW FILE WAS UPDATED (/beegfs/scratch/ispackman/PFAS_EPR_calcs/benchmark/JChemEd_CF3_radical/CF3_radical_102.0_degrees_IN-PROGRESS/CF3_radical_102.0_degrees.gbw) ****
             **** DENSITY /beegfs/scratch/ispackman/PFAS_EPR_calcs/benchmark/JChemEd_CF3_radical/CF3_radical_102.0_degrees_IN-PROGRESS/CF3_radical_102.0_degrees.scfp WAS UPDATED ****
             **** ENERGY FILE WAS UPDATED (/beegfs/scratch/ispackman/PFAS_EPR_calcs/benchmark/JChemEd_CF3_radical/CF3_radical_102.0_degrees_IN-PROGRESS/CF3_radical_102.0_degrees.en.tmp) ****
----------------------
UHF SPIN CONTAMINATION
----------------------

Warning: in a DFT calculation there is little theoretical justification to 
         calculate <S**2> as in Hartree-Fock theory. We will do it anyways
         but you should keep in mind that the values have only limited relevance

Expectation value of <S**2>     :     0.752125
Ideal value S*(S+1) for S=0.5   :     0.750000
Deviation                       :     0.002125

             **** THE GBW FILE WAS UPDATED (/beegfs/scratch/ispackman/PFAS_EPR_calcs/benchmark/JChemEd_CF3_radical/CF3_radical_102.0_degrees_IN-PROGRESS/CF3_radical_102.0_degrees.gbw) ****
             **** DENSITY /beegfs/scratch/ispackman/PFAS_EPR_calcs/benchmark/JChemEd_CF3_radical/CF3_radical_102.0_degrees_IN-PROGRESS/CF3_radical_102.0_degrees.scfp WAS UPDATED ****
----------------
ORBITAL ENERGIES
----------------
                 SPIN UP ORBITALS
  NO   OCC          E(Eh)            E(eV) 
   0   1.0000     -24.841171      -675.9626 
   1   1.0000     -24.841168      -675.9625 
   2   1.0000     -24.841158      -675.9623 
   3   1.0000     -10.550074      -287.0821 
   4   1.0000      -1.483093       -40.3570 
   5   1.0000      -1.369072       -37.2543 
   6   1.0000      -1.369065       -37.2541 
   7   1.0000      -0.838594       -22.8193 
   8   1.0000      -0.726163       -19.7599 
   9   1.0000      -0.726155       -19.7597 
  10   1.0000      -0.706837       -19.2340 
  11   1.0000      -0.606417       -16.5014 
  12   1.0000      -0.606411       -16.5013 
  13   1.0000      -0.549215       -14.9449 
  14   1.0000      -0.549206       -14.9447 
  15   1.0000      -0.528331       -14.3766 
  16   1.0000      -0.426856       -11.6153 
  17   0.0000       0.072504         1.9729 
  18   0.0000       0.105499         2.8708 
  19   0.0000       0.105499         2.8708 
  20   0.0000       0.112018         3.0482 
  21   0.0000       0.160534         4.3683 
  22   0.0000       0.160535         4.3684 
  23   0.0000       0.171896         4.6775 
  24   0.0000       0.171896         4.6775 
  25   0.0000       0.188940         5.1413 
  26   0.0000       0.217426         5.9165 
  27   0.0000       0.217433         5.9166 
  28   0.0000       0.240520         6.5449 
  29   0.0000       0.288920         7.8619 
  30   0.0000       0.348183         9.4745 
  31   0.0000       0.350075         9.5260 
  32   0.0000       0.350083         9.5262 
  33   0.0000       0.387007        10.5310 
  34   0.0000       0.387008        10.5310 
  35   0.0000       0.396721        10.7953 
  36   0.0000       0.403750        10.9866 
  37   0.0000       0.403751        10.9866 
  38   0.0000       0.419652        11.4193 
  39   0.0000       0.487124        13.2553 
  40   0.0000       0.487130        13.2555 
  41   0.0000       0.517873        14.0920 
  42   0.0000       0.566654        15.4195 
  43   0.0000       0.626648        17.0520 
  44   0.0000       0.626649        17.0520 
  45   0.0000       0.693291        18.8654 
  46   0.0000       0.693295        18.8655 
  47   0.0000       0.710174        19.3248 
  48   0.0000       0.727505        19.7964 
  49   0.0000       0.727514        19.7967 
  50   0.0000       0.728698        19.8289 
  51   0.0000       0.763975        20.7888 
  52   0.0000       0.793969        21.6050 
  53   0.0000       0.793971        21.6050 
  54   0.0000       0.873951        23.7814 
  55   0.0000       0.898667        24.4540 
  56   0.0000       0.898672        24.4541 
  57   0.0000       0.933029        25.3890 
  58   0.0000       0.970957        26.4211 
  59   0.0000       0.970966        26.4213 
  60   0.0000       1.075867        29.2758 
  61   0.0000       1.075872        29.2760 
  62   0.0000       1.108726        30.1700 
  63   0.0000       1.164979        31.7007 
  64   0.0000       1.165728        31.7211 
  65   0.0000       1.165731        31.7212 
  66   0.0000       1.233124        33.5550 
  67   0.0000       1.247969        33.9590 
  68   0.0000       1.247974        33.9591 
  69   0.0000       1.317635        35.8547 
  70   0.0000       1.317640        35.8548 
  71   0.0000       1.333575        36.2884 
  72   0.0000       1.451190        39.4889 
  73   0.0000       1.451224        39.4898 
  74   0.0000       1.665870        45.3306 
  75   0.0000       2.128977        57.9324 
  76   0.0000       2.166223        58.9459 
  77   0.0000       2.166235        58.9462 
  78   0.0000       2.195212        59.7348 
  79   0.0000       2.217861        60.3511 
  80   0.0000       2.220552        60.4243 
  81   0.0000       2.220553        60.4243 
  82   0.0000       2.328824        63.3705 
  83   0.0000       2.328864        63.3716 
  84   0.0000       2.391934        65.0878 
  85   0.0000       2.466956        67.1293 
  86   0.0000       2.466961        67.1294 
  87   0.0000       2.591912        70.5295 
  88   0.0000       2.591922        70.5298 
  89   0.0000       2.826531        76.9138 
  90   0.0000       2.906732        79.0962 
  91   0.0000       2.938923        79.9722 
  92   0.0000       2.938959        79.9731 
  93   0.0000       3.101293        84.3905 
  94   0.0000       3.178666        86.4959 
  95   0.0000       3.187175        86.7274 
  96   0.0000       3.187213        86.7285 
  97   0.0000       3.296121        89.6920 
  98   0.0000       3.296178        89.6936 
  99   0.0000       3.397169        92.4417 
 100   0.0000       3.397192        92.4423 
 101   0.0000       3.438312        93.5612 
 102   0.0000       3.616976        98.4229 
 103   0.0000       3.616994        98.4234 
 104   0.0000       3.712698       101.0276 
 105   0.0000       3.853494       104.8589 
 106   0.0000       3.915996       106.5597 
 107   0.0000       3.968975       108.0013 
 108   0.0000       3.969044       108.0032 
 109   0.0000       4.092022       111.3496 
 110   0.0000       4.092036       111.3500 
 111   0.0000       4.192318       114.0788 
 112   0.0000       4.249786       115.6426 
 113   0.0000       4.249851       115.6443 
 114   0.0000       5.386770       146.5815 
 115   0.0000       5.386817       146.5828 
 116   0.0000       5.414232       147.3287 
 117   0.0000       6.911985       188.0847 
 118   0.0000       6.911988       188.0847 
 119   0.0000       6.913097       188.1149 
 120   0.0000       6.921047       188.3313 
 121   0.0000       6.921121       188.3333 
 122   0.0000       6.928871       188.5442 
 123   0.0000       6.932523       188.6435 
 124   0.0000       6.932574       188.6449 
 125   0.0000       6.943650       188.9463 
 126   0.0000       7.066749       192.2960 
 127   0.0000       7.066830       192.2982 
 128   0.0000       7.148692       194.5258 
 129   0.0000       7.252006       197.3371 
 130   0.0000       7.252016       197.3374 
 131   0.0000       7.253921       197.3892 
 132   0.0000       7.481305       203.5766 
 133   0.0000       7.544027       205.2834 
 134   0.0000       7.544075       205.2847 
 135   0.0000       7.544117       205.2858 
 136   0.0000       7.772531       211.5013 
 137   0.0000       7.772611       211.5035 
 138   0.0000       8.512580       231.6391 
 139   0.0000       8.512619       231.6401 
 140   0.0000       8.563773       233.0321 
 141   0.0000       8.601149       234.0492 
 142   0.0000       8.606281       234.1888 
 143   0.0000       8.606353       234.1908 
 144   0.0000       8.814176       239.8459 
 145   0.0000       8.824171       240.1179 
 146   0.0000       8.824193       240.1185 
 147   0.0000       8.992788       244.7062 
 148   0.0000       9.136891       248.6274 
 149   0.0000       9.136952       248.6291 
 150   0.0000       9.240635       251.4505 
 151   0.0000       9.407645       255.9950 
 152   0.0000       9.407683       255.9961 
 153   0.0000      22.709387       617.9538 
 154   0.0000      57.329978      1560.0280 
 155   0.0000      57.330014      1560.0290 
 156   0.0000      57.370664      1561.1351 

                 SPIN DOWN ORBITALS
  NO   OCC          E(Eh)            E(eV) 
   0   1.0000     -24.838290      -675.8842 
   1   1.0000     -24.838285      -675.8841 
   2   1.0000     -24.838271      -675.8837 
   3   1.0000     -10.537196      -286.7317 
   4   1.0000      -1.474086       -40.1119 
   5   1.0000      -1.360415       -37.0188 
   6   1.0000      -1.360407       -37.0186 
   7   1.0000      -0.820548       -22.3283 
   8   1.0000      -0.715594       -19.4723 
   9   1.0000      -0.715584       -19.4720 
  10   1.0000      -0.666273       -18.1302 
  11   1.0000      -0.594788       -16.1850 
  12   1.0000      -0.594782       -16.1848 
  13   1.0000      -0.541444       -14.7334 
  14   1.0000      -0.541434       -14.7332 
  15   1.0000      -0.525033       -14.2869 
  16   0.0000      -0.075129        -2.0444 
  17   0.0000       0.082850         2.2545 
  18   0.0000       0.108516         2.9529 
  19   0.0000       0.108516         2.9529 
  20   0.0000       0.127064         3.4576 
  21   0.0000       0.164722         4.4823 
  22   0.0000       0.164723         4.4823 
  23   0.0000       0.177991         4.8434 
  24   0.0000       0.177991         4.8434 
  25   0.0000       0.200154         5.4465 
  26   0.0000       0.240043         6.5319 
  27   0.0000       0.240046         6.5320 
  28   0.0000       0.241449         6.5702 
  29   0.0000       0.294649         8.0178 
  30   0.0000       0.360126         9.7995 
  31   0.0000       0.370688        10.0869 
  32   0.0000       0.370694        10.0871 
  33   0.0000       0.388226        10.5642 
  34   0.0000       0.388227        10.5642 
  35   0.0000       0.405937        11.0461 
  36   0.0000       0.406714        11.0672 
  37   0.0000       0.406714        11.0673 
  38   0.0000       0.429118        11.6769 
  39   0.0000       0.488413        13.2904 
  40   0.0000       0.488417        13.2905 
  41   0.0000       0.522108        14.2073 
  42   0.0000       0.571497        15.5512 
  43   0.0000       0.628709        17.1080 
  44   0.0000       0.628713        17.1081 
  45   0.0000       0.694756        18.9053 
  46   0.0000       0.694758        18.9053 
  47   0.0000       0.710479        19.3331 
  48   0.0000       0.730224        19.8704 
  49   0.0000       0.730233        19.8707 
  50   0.0000       0.739868        20.1328 
  51   0.0000       0.763193        20.7676 
  52   0.0000       0.795785        21.6544 
  53   0.0000       0.795786        21.6544 
  54   0.0000       0.875327        23.8189 
  55   0.0000       0.901330        24.5264 
  56   0.0000       0.901336        24.5266 
  57   0.0000       0.947238        25.7757 
  58   0.0000       0.978659        26.6307 
  59   0.0000       0.978668        26.6309 
  60   0.0000       1.079113        29.3642 
  61   0.0000       1.079118        29.3643 
  62   0.0000       1.112574        30.2747 
  63   0.0000       1.167546        31.7705 
  64   0.0000       1.167556        31.7708 
  65   0.0000       1.177961        32.0540 
  66   0.0000       1.236479        33.6463 
  67   0.0000       1.258961        34.2581 
  68   0.0000       1.258968        34.2583 
  69   0.0000       1.324882        36.0519 
  70   0.0000       1.324904        36.0525 
  71   0.0000       1.333931        36.2981 
  72   0.0000       1.453453        39.5505 
  73   0.0000       1.453488        39.5514 
  74   0.0000       1.720539        46.8183 
  75   0.0000       2.138138        58.1817 
  76   0.0000       2.175389        59.1953 
  77   0.0000       2.175396        59.1955 
  78   0.0000       2.198502        59.8243 
  79   0.0000       2.228085        60.6293 
  80   0.0000       2.228089        60.6294 
  81   0.0000       2.229348        60.6637 
  82   0.0000       2.333954        63.5101 
  83   0.0000       2.333992        63.5111 
  84   0.0000       2.393230        65.1231 
  85   0.0000       2.474432        67.3327 
  86   0.0000       2.474432        67.3327 
  87   0.0000       2.615335        71.1669 
  88   0.0000       2.615368        71.1678 
  89   0.0000       2.833818        77.1121 
  90   0.0000       2.912596        79.2558 
  91   0.0000       2.943686        80.1018 
  92   0.0000       2.943707        80.1023 
  93   0.0000       3.119642        84.8898 
  94   0.0000       3.201319        87.1123 
  95   0.0000       3.201349        87.1131 
  96   0.0000       3.230846        87.9158 
  97   0.0000       3.323832        90.4461 
  98   0.0000       3.323866        90.4470 
  99   0.0000       3.439950        93.6058 
 100   0.0000       3.439952        93.6058 
 101   0.0000       3.446079        93.7726 
 102   0.0000       3.637430        98.9795 
 103   0.0000       3.637434        98.9796 
 104   0.0000       3.746994       101.9609 
 105   0.0000       3.863570       105.1331 
 106   0.0000       3.923409       106.7614 
 107   0.0000       3.997235       108.7703 
 108   0.0000       3.997283       108.7716 
 109   0.0000       4.099371       111.5495 
 110   0.0000       4.099378       111.5498 
 111   0.0000       4.204204       114.4022 
 112   0.0000       4.259375       115.9035 
 113   0.0000       4.259434       115.9051 
 114   0.0000       5.396609       146.8492 
 115   0.0000       5.396610       146.8492 
 116   0.0000       5.427058       147.6778 
 117   0.0000       6.917560       188.2364 
 118   0.0000       6.917573       188.2367 
 119   0.0000       6.917915       188.2460 
 120   0.0000       6.924402       188.4226 
 121   0.0000       6.924465       188.4243 
 122   0.0000       6.934337       188.6929 
 123   0.0000       6.937686       188.7840 
 124   0.0000       6.937734       188.7853 
 125   0.0000       6.946463       189.0229 
 126   0.0000       7.072393       192.4496 
 127   0.0000       7.072468       192.4516 
 128   0.0000       7.152381       194.6262 
 129   0.0000       7.259373       197.5376 
 130   0.0000       7.259375       197.5376 
 131   0.0000       7.260745       197.5749 
 132   0.0000       7.491095       203.8431 
 133   0.0000       7.550934       205.4714 
 134   0.0000       7.550959       205.4720 
 135   0.0000       7.552268       205.5077 
 136   0.0000       7.780159       211.7089 
 137   0.0000       7.780262       211.7117 
 138   0.0000       8.520303       231.8492 
 139   0.0000       8.520339       231.8502 
 140   0.0000       8.571006       233.2289 
 141   0.0000       8.610856       234.3133 
 142   0.0000       8.616061       234.4549 
 143   0.0000       8.616133       234.4569 
 144   0.0000       8.819869       240.0008 
 145   0.0000       8.833415       240.3694 
 146   0.0000       8.833439       240.3701 
 147   0.0000       9.001981       244.9563 
 148   0.0000       9.141845       248.7622 
 149   0.0000       9.141898       248.7637 
 150   0.0000       9.246635       251.6137 
 151   0.0000       9.414248       256.1747 
 152   0.0000       9.414290       256.1759 
 153   0.0000      22.732449       618.5814 
 154   0.0000      57.332828      1560.1056 
 155   0.0000      57.332865      1560.1066 
 156   0.0000      57.373544      1561.2135 

                    ********************************
                    * MULLIKEN POPULATION ANALYSIS *
                    ********************************

--------------------------------------------
MULLIKEN ATOMIC CHARGES AND SPIN POPULATIONS
--------------------------------------------
   0 C :    0.562678    0.785000
   1 F :   -0.187554    0.071669
   2 F :   -0.187562    0.071665
   3 F :   -0.187562    0.071666
Sum of atomic charges         :    0.0000000
Sum of atomic spin populations:    1.0000000

-----------------------------------------------------
MULLIKEN REDUCED ORBITAL CHARGES AND SPIN POPULATIONS
-----------------------------------------------------
CHARGE
  0 C s       :     3.189565  s :     3.189565
      pz      :     0.839810  p :     1.909592
      px      :     0.534874
      py      :     0.534908
      dz2     :     0.059034  d :     0.295357
      dxz     :     0.047518
      dyz     :     0.047535
      dx2y2   :     0.070637
      dxy     :     0.070632
      f0      :     0.001460  f :     0.042809
      f+1     :     0.006492
      f-1     :     0.006493
      f+2     :     0.007135
      f-2     :     0.007138
      f+3     :     0.004171
      f-3     :     0.009919
  1 F s       :     3.953148  s :     3.953148
      pz      :     1.748296  p :     5.224471
      px      :     1.550140
      py      :     1.926035
      dz2     :     0.000648  d :     0.009098
      dxz     :     0.005387
      dyz     :     0.001436
      dx2y2   :     0.004537
      dxy     :    -0.002911
      f0      :     0.000084  f :     0.000836
      f+1     :     0.000170
      f-1     :     0.000005
      f+2     :     0.000215
      f-2     :     0.000067
      f+3     :     0.000163
      f-3     :     0.000131
  2 F s       :     3.953185  s :     3.953185
      pz      :     1.748267  p :     5.224460
      px      :     1.832062
      py      :     1.644131
      dz2     :     0.000645  d :     0.009081
      dxz     :     0.002422
      dyz     :     0.004397
      dx2y2   :    -0.001051
      dxy     :     0.002668
      f0      :     0.000084  f :     0.000836
      f+1     :     0.000046
      f-1     :     0.000129
      f+2     :     0.000104
      f-2     :     0.000178
      f+3     :     0.000163
      f-3     :     0.000131
  3 F s       :     3.953185  s :     3.953185
      pz      :     1.748267  p :     5.224461
      px      :     1.832062
      py      :     1.644131
      dz2     :     0.000645  d :     0.009080
      dxz     :     0.002422
      dyz     :     0.004397
      dx2y2   :    -0.001051
      dxy     :     0.002668
      f0      :     0.000084  f :     0.000836
      f+1     :     0.000046
      f-1     :     0.000129
      f+2     :     0.000104
      f-2     :     0.000178
      f+3     :     0.000163
      f-3     :     0.000131

SPIN
  0 C s       :     0.274475  s :     0.274475
      pz      :     0.476227  p :     0.500803
      px      :     0.012288
      py      :     0.012288
      dz2     :     0.015299  d :     0.010478
      dxz     :    -0.001488
      dyz     :    -0.001487
      dx2y2   :    -0.000925
      dxy     :    -0.000921
      f0      :    -0.000062  f :    -0.000757
      f+1     :    -0.000361
      f-1     :    -0.000360
      f+2     :    -0.000193
      f-2     :    -0.000192
      f+3     :     0.000366
      f-3     :     0.000044
  1 F s       :     0.003245  s :     0.003245
      pz      :     0.070803  p :     0.066923
      px      :    -0.002680
      py      :    -0.001200
      dz2     :    -0.000013  d :     0.001470
      dxz     :     0.000758
      dyz     :    -0.000013
      dx2y2   :     0.000825
      dxy     :    -0.000087
      f0      :     0.000001  f :     0.000031
      f+1     :     0.000019
      f-1     :     0.000001
      f+2     :     0.000001
      f-2     :     0.000002
      f+3     :     0.000008
      f-3     :    -0.000000
  2 F s       :     0.003248  s :     0.003248
      pz      :     0.070777  p :     0.066912
      px      :    -0.001559
      py      :    -0.002305
      dz2     :    -0.000013  d :     0.001474
      dxz     :     0.000180
      dyz     :     0.000566
      dx2y2   :     0.000142
      dxy     :     0.000600
      f0      :     0.000001  f :     0.000031
      f+1     :     0.000005
      f-1     :     0.000014
      f+2     :     0.000002
      f-2     :     0.000002
      f+3     :     0.000008
      f-3     :    -0.000000
  3 F s       :     0.003248  s :     0.003248
      pz      :     0.070777  p :     0.066912
      px      :    -0.001559
      py      :    -0.002305
      dz2     :    -0.000013  d :     0.001474
      dxz     :     0.000180
      dyz     :     0.000566
      dx2y2   :     0.000142
      dxy     :     0.000600
      f0      :     0.000001  f :     0.000031
      f+1     :     0.000005
      f-1     :     0.000014
      f+2     :     0.000002
      f-2     :     0.000002
      f+3     :     0.000008
      f-3     :    -0.000000


                     *******************************
                     * LOEWDIN POPULATION ANALYSIS *
                     *******************************

-------------------------------------------
LOEWDIN ATOMIC CHARGES AND SPIN POPULATIONS
-------------------------------------------
   0 C :   -0.356145    0.623062
   1 F :    0.118701    0.125659
   2 F :    0.118722    0.125640
   3 F :    0.118722    0.125640

----------------------------------------------------
LOEWDIN REDUCED ORBITAL CHARGES AND SPIN POPULATIONS
----------------------------------------------------
CHARGE
  0 C s       :     2.704980  s :     2.704980
      pz      :     0.805674  p :     2.170768
      px      :     0.682530
      py      :     0.682564
      dz2     :     0.173214  d :     1.203240
      dxz     :     0.211009
      dyz     :     0.211017
      dx2y2   :     0.304001
      dxy     :     0.304000
      f0      :     0.015766  f :     0.277157
      f+1     :     0.031637
      f-1     :     0.031637
      f+2     :     0.053021
      f-2     :     0.053023
      f+3     :     0.037836
      f-3     :     0.054236
  1 F s       :     3.554661  s :     3.554661
      pz      :     1.686731  p :     5.096500
      px      :     1.622502
      py      :     1.787267
      dz2     :     0.038178  d :     0.228145
      dxz     :     0.065410
      dyz     :     0.010126
      dx2y2   :     0.043385
      dxy     :     0.071047
      f0      :     0.000175  f :     0.001993
      f+1     :     0.000489
      f-1     :     0.000006
      f+2     :     0.000483
      f-2     :     0.000149
      f+3     :     0.000332
      f-3     :     0.000360
  2 F s       :     3.554660  s :     3.554660
      pz      :     1.686734  p :     5.096486
      px      :     1.746066
      py      :     1.663686
      dz2     :     0.038177  d :     0.228139
      dxz     :     0.023946
      dyz     :     0.051587
      dx2y2   :     0.064129
      dxy     :     0.050299
      f0      :     0.000175  f :     0.001993
      f+1     :     0.000127
      f-1     :     0.000368
      f+2     :     0.000233
      f-2     :     0.000400
      f+3     :     0.000332
      f-3     :     0.000360
  3 F s       :     3.554660  s :     3.554660
      pz      :     1.686734  p :     5.096486
      px      :     1.746066
      py      :     1.663686
      dz2     :     0.038177  d :     0.228139
      dxz     :     0.023946
      dyz     :     0.051587
      dx2y2   :     0.064129
      dxy     :     0.050299
      f0      :     0.000175  f :     0.001993
      f+1     :     0.000127
      f-1     :     0.000368
      f+2     :     0.000233
      f-2     :     0.000400
      f+3     :     0.000332
      f-3     :     0.000360

SPIN
  0 C s       :     0.154217  s :     0.154217
      pz      :     0.400176  p :     0.411481
      px      :     0.005650
      py      :     0.005655
      dz2     :     0.057925  d :     0.049256
      dxz     :    -0.003695
      dyz     :    -0.003695
      dx2y2   :    -0.000641
      dxy     :    -0.000638
      f0      :     0.001085  f :     0.008108
      f+1     :    -0.000218
      f-1     :    -0.000218
      f+2     :    -0.000187
      f-2     :    -0.000187
      f+3     :     0.007830
      f-3     :     0.000003
  1 F s       :     0.014951  s :     0.014951
      pz      :     0.075644  p :     0.080877
      px      :     0.005899
      py      :    -0.000666
      dz2     :     0.009650  d :     0.029505
      dxz     :     0.018946
      dyz     :    -0.000181
      dx2y2   :     0.001089
      dxy     :     0.000001
      f0      :    -0.000001  f :     0.000326
      f+1     :     0.000251
      f-1     :     0.000001
      f+2     :     0.000047
      f-2     :     0.000001
      f+3     :     0.000024
      f-3     :     0.000003
  2 F s       :     0.014950  s :     0.014950
      pz      :     0.075623  p :     0.080857
      px      :     0.000979
      py      :     0.004255
      dz2     :     0.009650  d :     0.029506
      dxz     :     0.004601
      dyz     :     0.014165
      dx2y2   :     0.000273
      dxy     :     0.000817
      f0      :    -0.000001  f :     0.000326
      f+1     :     0.000063
      f-1     :     0.000188
      f+2     :     0.000013
      f-2     :     0.000036
      f+3     :     0.000024
      f-3     :     0.000003
  3 F s       :     0.014950  s :     0.014950
      pz      :     0.075623  p :     0.080857
      px      :     0.000979
      py      :     0.004255
      dz2     :     0.009650  d :     0.029506
      dxz     :     0.004601
      dyz     :     0.014165
      dx2y2   :     0.000273
      dxy     :     0.000817
      f0      :    -0.000001  f :     0.000326
      f+1     :     0.000063
      f-1     :     0.000188
      f+2     :     0.000013
      f-2     :     0.000036
      f+3     :     0.000024
      f-3     :     0.000003


                      *****************************
                      * MAYER POPULATION ANALYSIS *
                      *****************************

  NA   - Mulliken gross atomic population
  ZA   - Total nuclear charge
  QA   - Mulliken gross atomic charge
  VA   - Mayer's total valence
  BVA  - Mayer's bonded valence
  FA   - Mayer's free valence

  ATOM       NA         ZA         QA         VA         BVA        FA
  0 C      5.4373     6.0000     0.5627     3.7976     3.1737     0.6239
  1 F      9.1876     9.0000    -0.1876     1.0416     1.0376     0.0040
  2 F      9.1876     9.0000    -0.1876     1.0414     1.0374     0.0040
  3 F      9.1876     9.0000    -0.1876     1.0414     1.0374     0.0040

  Mayer bond orders larger than 0.100000
B(  0-C ,  1-F ) :   1.0580 B(  0-C ,  2-F ) :   1.0578 B(  0-C ,  3-F ) :   1.0578 


-------
TIMINGS
-------

Total SCF time: 0 days 0 hours 0 min 22 sec 

Total time                  ....      22.176 sec
Sum of individual times     ....      19.715 sec  ( 88.9%)

Fock matrix formation       ....      15.021 sec  ( 67.7%)
  Split-RI-J                ....       2.593 sec  ( 17.3% of F)
  Chain of spheres X        ....       2.829 sec  ( 18.8% of F)
  XC integration            ....       2.882 sec  ( 19.2% of F)
    Basis function eval.    ....       0.109 sec  (  3.8% of XC)
    Density eval.           ....       0.149 sec  (  5.2% of XC)
    XC-Functional eval.     ....       0.078 sec  (  2.7% of XC)
    XC-Potential eval.      ....       0.288 sec  ( 10.0% of XC)
Diagonalization             ....       0.390 sec  (  1.8%)
Density matrix formation    ....       0.016 sec  (  0.1%)
Population analysis         ....       0.355 sec  (  1.6%)
Initial guess               ....       1.279 sec  (  5.8%)
Orbital Transformation      ....       0.000 sec  (  0.0%)
Orbital Orthonormalization  ....       0.000 sec  (  0.0%)
DIIS solution               ....       1.563 sec  (  7.0%)
Grid generation             ....       1.090 sec  (  4.9%)

Maximum memory used throughout the entire SCF-calculation: 63.2 MB


-------------------------------------------------------------------------------
                          DFT DISPERSION CORRECTION                            
                                                                               
                              DFTD3 V3.1  Rev 1                                
                              USING zero damping                               
-------------------------------------------------------------------------------
The omegaB97X-D3 functional is recognized. Fit by Chai et al.
Active option DFTDOPT                   ...         3   

molecular C6(AA) [au] = 165.587282 


            DFT-D V3
 parameters
 s6 scaling factor         :     1.0000 
 rs6 scaling factor        :     1.2810 
 s8 scaling factor         :     1.0000 
 rs8 scaling factor        :     1.0940 
 Damping factor alpha6     :    14.0000 
 Damping factor alpha8     :    16.0000 
 ad hoc parameters k1-k3   :    16.0000     1.3333    -4.0000 

 Edisp/kcal,au: -0.032439379182  -0.000051695436 
 E6   /kcal   :  -0.004118176 
 E8   /kcal   :  -0.028321203 
 % E8         :  87.305010783 

-------------------------   ----------------
Dispersion correction           -0.000051695
-------------------------   ----------------


-------------------------   --------------------
FINAL SINGLE POINT ENERGY      -337.607816534274
-------------------------   --------------------



           ************************************************************
           *        Program running with 18 parallel MPI-processes    *
           *              working on a common directory               *
           ************************************************************
------------------------------------------------------------------------------
                         ORCA SCF GRADIENT CALCULATION
------------------------------------------------------------------------------

 ... reading COSX grid (gridx3)
Gradient of the Kohn-Sham DFT energy:
Kohn-Sham wavefunction type      ... UKS
Hartree-Fock exchange scaling    ...    0.196
Number of operators              ...    2
Number of atoms                  ...    4
Basis set dimensions             ...  157
Integral neglect threshold       ... 2.5e-11
Integral primitive cutoff        ... 2.5e-12
SHARK Integral package           ... ON

Nuc. rep. gradient       (SHARK) ... done (  0.0 sec)
HCore & Overlap gradient (SHARK) ... done (  0.0 sec)
RI-J gradient            (SHARK) ... done (  0.4 sec)
COSX-gradient                    ... done (  0.4 sec)
Exchange-correlation gradient    ... done
Dispersion correction            ... done

------------------
CARTESIAN GRADIENT
------------------

WARNING: THERE ARE 3 CONSTRAINED CARTESIAN COORDINATES
   1   C   :   -0.000053239    0.000000001    0.094154456
   2   F   :   -0.045222604    0.000000021   -0.031648172
   3   F   :    0.022803726   -0.038660184   -0.030941612
   4   F   :    0.022803535    0.038660344   -0.030941838

Difference to translation invariance:
           :    0.0003314187    0.0000001818    0.0006228345

Difference to rotation invariance:
           :    0.0000006351    0.0011535429   -0.0000005011

Norm of the cartesian gradient     ...    0.1336255173
RMS gradient                       ...    0.0385743642
MAX gradient                       ...    0.0941544558

-------
TIMINGS
-------

Total SCF gradient time            ...        1.574 sec

One electron gradient       ....       0.013 sec  (  0.9%)
RI-J Coulomb gradient       ....       0.444 sec  ( 28.2%)
COSX gradient               ....       0.445 sec  ( 28.3%)
XC gradient                 ....       0.169 sec  ( 10.7%)

Maximum memory used throughout the entire SCFGRAD-calculation: 37.2 MB
------------------------------------------------------------------------------
                         ORCA GEOMETRY RELAXATION STEP
------------------------------------------------------------------------------

Reading the OPT-File                    .... done
Getting information on internals        .... done
Copying old internal coords+grads       .... done
Making the new internal coordinates     .... (new redundants).... done
Validating the new internal coordinates .... (new redundants).... done
Calculating the B-matrix                .... done
Calculating the G,G- and P matrices     .... done
Transforming gradient to internals      .... done
Projecting the internal gradient        .... done
Number of atoms                         ....   4
Number of internal coordinates          ....   7
Current Energy                          ....  -337.607816534 Eh
Current gradient norm                   ....     0.133625517 Eh/bohr
Maximum allowed component of the step   ....  0.300
Current trust radius                    ....  0.300
Evaluating the initial hessian          ....  (Almloef) done
Projecting the Hessian                  .... done
Forming the augmented Hessian           .... done
Diagonalizing the augmented Hessian     .... done
Last element of RFO vector              ....  0.997773151
Lowest eigenvalues of augmented Hessian:
 -0.003074275  0.684895726  0.684895726  0.687970001 1000.000000000
Length of the computed step             ....  0.066847722
The final length of the internal step   ....  0.066847722
Converting the step to cartesian space:
 Initial RMS(Int)=    0.0252660641
Transforming coordinates:
 Iter   0:  RMS(Cart)=    0.0178324882 RMS(Int)=    0.0252660648
 Iter   1:  RMS(Cart)=    0.0000000018 RMS(Int)=    0.0000000032
Imposing constraints:
 Iter   0:  RMS(Cart)=    0.0000000011 RMS(Int)=    0.0000000016
CONVERGED
done
Storing new coordinates                 .... done

                                .--------------------.
          ----------------------|Geometry convergence|-------------------------
          Item                value                   Tolerance       Converged
          ---------------------------------------------------------------------
          RMS gradient        0.0173822942            0.0001000000      NO
          MAX gradient        0.0267473553            0.0003000000      NO
          RMS step            0.0252660641            0.0020000000      NO
          MAX step            0.0388786652            0.0040000000      NO
          ........................................................
          Max(Bonds)      0.0206      Max(Angles)    0.00
          Max(Dihed)        0.00      Max(Improp)    0.00
          ---------------------------------------------------------------------

The optimization has not yet converged - more geometry cycles are needed


    ---------------------------------------------------------------------------
                         Redundant Internal Coordinates
                            (Angstroem and degrees)

        Definition                    Value    dE/dq     Step     New-Value
    ----------------------------------------------------------------------------
     1. B(F   1,C   0)                1.3150 -0.026747  0.0206    1.3356   
     2. B(F   2,C   0)                1.3150 -0.026454  0.0203    1.3353   
     3. B(F   3,C   0)                1.3150 -0.026454  0.0203    1.3353   
     4. A(F   2,C   0,F   3)          102.00 -0.080857    0.00    102.00 C 
     5. A(F   1,C   0,F   2)          102.00 -0.035728    0.00    102.00 C 
     6. A(F   1,C   0,F   3)          102.00 -0.035728    0.00    102.00 C 
     7. I(F   1,F   3,F   2,C   0)     70.71  0.076311   -0.00     70.71   
    ----------------------------------------------------------------------------

         *************************************************************
         *                GEOMETRY OPTIMIZATION CYCLE   2            *
         *************************************************************
---------------------------------
CARTESIAN COORDINATES (ANGSTROEM)
---------------------------------
  C     -0.000067   -0.000000    0.006759
  F      1.198460   -0.000000   -0.582555
  F     -0.599196    1.037760   -0.582522
  F     -0.599196   -1.037760   -0.582522

----------------------------
CARTESIAN COORDINATES (A.U.)
----------------------------
  NO LB      ZA    FRAG     MASS         X           Y           Z
   0 C     6.0000    0    12.011   -0.000127   -0.000000    0.012773
   1 F     9.0000    0    18.998    2.264761   -0.000000   -1.100869
   2 F     9.0000    0    18.998   -1.132317    1.961082   -1.100806
   3 F     9.0000    0    18.998   -1.132317   -1.961082   -1.100806

--------------------------------
INTERNAL COORDINATES (ANGSTROEM)
--------------------------------
 C      0   0   0     0.000000000000     0.00000000     0.00000000
 F      1   0   0     1.335573703496     0.00000000     0.00000000
 F      1   2   0     1.335347788604   102.00000006     0.00000000
 F      1   2   3     1.335347744111   102.00000006   105.21759398

---------------------------
INTERNAL COORDINATES (A.U.)
---------------------------
 C      0   0   0     0.000000000000     0.00000000     0.00000000
 F      1   0   0     2.523868531274     0.00000000     0.00000000
 F      1   2   0     2.523441613999   102.00000006     0.00000000
 F      1   2   3     2.523441529920   102.00000006   105.21759398



           ************************************************************
           *        Program running with 18 parallel MPI-processes    *
           *              working on a common directory               *
           ************************************************************
------------------------------------------------------------------------------
                   ___                                                        
                  /   \      - P O W E R E D   B Y -                         
                 /     \                                                     
                 |  |  |   _    _      __       _____    __    __             
                 |  |  |  | |  | |    /  \     |  _  \  |  |  /  |          
                  \  \/   | |  | |   /    \    | | | |  |  | /  /          
                 / \  \   | |__| |  /  /\  \   | |_| |  |  |/  /          
                |  |  |   |  __  | /  /__\  \  |    /   |      \           
                |  |  |   | |  | | |   __   |  |    \   |  |\   \          
                \     /   | |  | | |  |  |  |  | |\  \  |  | \   \       
                 \___/    |_|  |_| |__|  |__|  |_| \__\ |__|  \__/        
                                                                              
                      - O R C A' S   B I G   F R I E N D -                    
                                      &                                       
                       - I N T E G R A L  F E E D E R -                       
                                                                              
 v1 FN, 2020, v2 2021                                                         
------------------------------------------------------------------------------


Reading SHARK input file /beegfs/scratch/ispackman/PFAS_EPR_calcs/benchmark/JChemEd_CF3_radical/CF3_radical_102.0_degrees_IN-PROGRESS/CF3_radical_102.0_degrees.SHARKINP.tmp ... ok
----------------------
SHARK INTEGRAL PACKAGE
----------------------

Number of atoms                             ...      4
Number of basis functions                   ...    157
Number of shells                            ...     55
Maximum angular momentum                    ...      3
Integral batch strategy                     ... SHARK/LIBINT Hybrid
RI-J (if used) integral strategy            ... SPLIT-RIJ (Revised 2003 algorithm where possible)
Printlevel                                  ...      1
Contraction scheme used                     ... SEGMENTED contraction
Coulomb Range Separation                    ... NOT USED
Exchange Range Separation                   ... Long Range
   Mu parameter                             ...  0.250000
   Scaling (regular/separated)              ...  0.195728  0.804272
Finite Nucleus Model                        ... NOT USED
Auxiliary Coulomb fitting basis             ... AVAILABLE
   # of basis functions in Aux-J            ...    196
   # of shells in Aux-J                     ...     60
   Maximum angular momentum in Aux-J        ...      4
Auxiliary J/K fitting basis                 ... NOT available
Auxiliary Correlation fitting basis         ... NOT available
Auxiliary 'external' fitting basis          ... NOT available
Integral threshold                          ...     2.500000e-11
Primitive cut-off                           ...     2.500000e-12
Primitive pair pre-selection threshold      ...     2.500000e-12

Calculating pre-screening integrals         ... done (  0.0 sec) Dimension = 55
Organizing shell pair data                  ... done (  0.0 sec)
Shell pair information
Total number of shell pairs                 ...      1540
Shell pairs after pre-screening             ...      1504
Total number of primitive shell pairs       ...      4274
Primitive shell pairs kept                  ...      3539
          la=0 lb=0:    282 shell pairs
          la=1 lb=0:    354 shell pairs
          la=1 lb=1:    120 shell pairs
          la=2 lb=0:    276 shell pairs
          la=2 lb=1:    180 shell pairs
          la=2 lb=2:     78 shell pairs
          la=3 lb=0:     96 shell pairs
          la=3 lb=1:     60 shell pairs
          la=3 lb=2:     48 shell pairs
          la=3 lb=3:     10 shell pairs

Calculating one electron integrals          ... done (  0.0 sec)
Calculating RI/J V-Matrix + Cholesky decomp.... done (  0.2 sec)
Calculating Nuclear repulsion               ... done (  0.0 sec) ENN=    126.146505071471 Eh

SHARK setup successfully completed in   0.7 seconds

Maximum memory used throughout the entire GTOINT-calculation: 15.2 MB


           ************************************************************
           *        Program running with 18 parallel MPI-processes    *
           *              working on a common directory               *
           ************************************************************

Diagonalization of the overlap matrix:
Smallest eigenvalue                        ... 3.953e-04
Time for diagonalization                   ...    0.008 sec
Threshold for overlap eigenvalues          ... 1.000e-08
Number of eigenvalues below threshold      ... 0
Time for construction of square roots      ...    0.093 sec
Total time needed                          ...    0.102 sec

-------------------
DFT GRID GENERATION
-------------------

General Integration Accuracy     IntAcc      ... 4.388
Radial Grid Type                 RadialGrid  ... OptM3 with GC (2021)
Angular Grid (max. ang.)         AngularGrid ... 4 (Lebedev-302)
Angular grid pruning method      GridPruning ... 4 (adaptive)
Weight generation scheme         WeightScheme... Becke
Basis function cutoff            BFCut       ... 1.0000e-11
Integration weight cutoff        WCut        ... 1.0000e-14
Angular grids for H and He will be reduced by one unit
Partially contracted basis set               ... off
Rotationally invariant grid construction     ... off

Total number of grid points                  ...    25784
Total number of batches                      ...      405
Average number of points per batch           ...       63
Average number of grid points per atom       ...     6446
Time for grid setup =    0.220 sec

--------------------
COSX GRID GENERATION
--------------------

GRIDX 1
-------
General Integration Accuracy     IntAcc      ... 3.816
Radial Grid Type                 RadialGrid  ... OptM3 with GC (2021)
Angular Grid (max. ang.)         AngularGrid ... 1 (Lebedev-50)
Angular grid pruning method      GridPruning ... 4 (adaptive)
Weight generation scheme         WeightScheme... Becke
Basis function cutoff            BFCut       ... 1.0000e-11
Integration weight cutoff        WCut        ... 1.0000e-14
Angular grids for H and He will be reduced by one unit
Partially contracted basis set               ... on
Rotationally invariant grid construction     ... off

Total number of grid points                  ...     3272
Total number of batches                      ...       53
Average number of points per batch           ...       61
Average number of grid points per atom       ...      818
UseSFitting                                  ... on

GRIDX 2
-------
General Integration Accuracy     IntAcc      ... 4.020
Radial Grid Type                 RadialGrid  ... OptM3 with GC (2021)
Angular Grid (max. ang.)         AngularGrid ... 2 (Lebedev-110)
Angular grid pruning method      GridPruning ... 4 (adaptive)
Weight generation scheme         WeightScheme... Becke
Basis function cutoff            BFCut       ... 1.0000e-11
Integration weight cutoff        WCut        ... 1.0000e-14
Angular grids for H and He will be reduced by one unit
Partially contracted basis set               ... on
Rotationally invariant grid construction     ... off

Total number of grid points                  ...     9119
Total number of batches                      ...      145
Average number of points per batch           ...       62
Average number of grid points per atom       ...     2280
UseSFitting                                  ... on

GRIDX 3
-------
General Integration Accuracy     IntAcc      ... 4.338
Radial Grid Type                 RadialGrid  ... OptM3 with GC (2021)
Angular Grid (max. ang.)         AngularGrid ... 3 (Lebedev-194)
Angular grid pruning method      GridPruning ... 4 (adaptive)
Weight generation scheme         WeightScheme... Becke
Basis function cutoff            BFCut       ... 1.0000e-11
Integration weight cutoff        WCut        ... 1.0000e-14
Angular grids for H and He will be reduced by one unit
Partially contracted basis set               ... on
Rotationally invariant grid construction     ... off

Total number of grid points                  ...    19676
Total number of batches                      ...      310
Average number of points per batch           ...       63
Average number of grid points per atom       ...     4919
UseSFitting                                  ... on

Time for X-Grid setup             =    0.781 sec

--------------
SCF ITERATIONS
--------------
[...]
  VA   - Mayer's total valence
  BVA  - Mayer's bonded valence
  FA   - Mayer's free valence

  ATOM       NA         ZA         QA         VA         BVA        FA
  0 C      5.4586     6.0000     0.5414     3.7895     3.1724     0.6170
  1 F      9.1806     9.0000    -0.1806     1.0486     1.0440     0.0046
  2 F      9.1804     9.0000    -0.1804     1.0487     1.0441     0.0046
  3 F      9.1804     9.0000    -0.1804     1.0487     1.0441     0.0046

  Mayer bond orders larger than 0.100000
B(  0-C ,  1-F ) :   1.0574 B(  0-C ,  2-F ) :   1.0575 B(  0-C ,  3-F ) :   1.0575 


-------
TIMINGS
-------

Total SCF time: 0 days 0 hours 0 min 11 sec 

Total time                  ....      11.744 sec
Sum of individual times     ....       9.924 sec  ( 84.5%)

Fock matrix formation       ....       7.712 sec  ( 65.7%)
  Split-RI-J                ....       0.792 sec  ( 10.3% of F)
  Chain of spheres X        ....       2.033 sec  ( 26.4% of F)
  XC integration            ....       1.499 sec  ( 19.4% of F)
    Basis function eval.    ....       0.066 sec  (  4.4% of XC)
    Density eval.           ....       0.094 sec  (  6.3% of XC)
    XC-Functional eval.     ....       0.047 sec  (  3.1% of XC)
    XC-Potential eval.      ....       0.127 sec  (  8.5% of XC)
Diagonalization             ....       0.213 sec  (  1.8%)
Density matrix formation    ....       0.013 sec  (  0.1%)
Population analysis         ....       0.374 sec  (  3.2%)
Initial guess               ....       0.021 sec  (  0.2%)
Orbital Transformation      ....       0.000 sec  (  0.0%)
Orbital Orthonormalization  ....       0.010 sec  (  0.1%)
DIIS solution               ....       0.591 sec  (  5.0%)
Grid generation             ....       0.999 sec  (  8.5%)

Maximum memory used throughout the entire SCF-calculation: 63.2 MB


-------------------------------------------------------------------------------
                          DFT DISPERSION CORRECTION                            
                                                                               
                              DFTD3 V3.1  Rev 1                                
                              USING zero damping                               
-------------------------------------------------------------------------------
The omegaB97X-D3 functional is recognized. Fit by Chai et al.
Active option DFTDOPT                   ...         3   

molecular C6(AA) [au] = 165.651934 


            DFT-D V3
 parameters
 s6 scaling factor         :     1.0000 
 rs6 scaling factor        :     1.2810 
 s8 scaling factor         :     1.0000 
 rs8 scaling factor        :     1.0940 
 Damping factor alpha6     :    14.0000 
 Damping factor alpha8     :    16.0000 
 ad hoc parameters k1-k3   :    16.0000     1.3333    -4.0000 

 Edisp/kcal,au: -0.037464927046  -0.000059704155 
 E6   /kcal   :  -0.004763176 
 E8   /kcal   :  -0.032701751 
 % E8         :  87.286305175 

-------------------------   ----------------
Dispersion correction           -0.000059704
-------------------------   ----------------


-------------------------   --------------------
FINAL SINGLE POINT ENERGY      -337.609546038159
-------------------------   --------------------

                                *** OPTIMIZATION RUN DONE ***

                            ***************************************
                            *     ORCA property calculations      *
                            ***************************************

                                    ---------------------
                                    Active property flags
                                    ---------------------
   (+) Dipole Moment


------------------------------------------------------------------------------
                       ORCA ELECTRIC PROPERTIES CALCULATION
------------------------------------------------------------------------------

Dipole Moment Calculation                       ... on
Quadrupole Moment Calculation                   ... off
Polarizability Calculation                      ... off
GBWName                                         ... /beegfs/scratch/ispackman/PFAS_EPR_calcs/benchmark/JChemEd_CF3_radical/CF3_radical_102.0_degrees_IN-PROGRESS/CF3_radical_102.0_degrees.gbw
Electron density                                ... /beegfs/scratch/ispackman/PFAS_EPR_calcs/benchmark/JChemEd_CF3_radical/CF3_radical_102.0_degrees_IN-PROGRESS/CF3_radical_102.0_degrees.scfp
The origin for moment calculation is the CENTER OF MASS  = ( 0.000025,  0.000000 -0.907227)

-------------
DIPOLE MOMENT
-------------
                                X             Y             Z
Electronic contribution:     -0.00085      -0.00000       0.08069
Nuclear contribution   :     -0.00009      -0.00000       0.28589
                        -----------------------------------------
Total Dipole Moment    :     -0.00094      -0.00000       0.36658
                        -----------------------------------------
Magnitude (a.u.)       :      0.36658
Magnitude (Debye)      :      0.93178



--------------------
Rotational spectrum 
--------------------
 
Rotational constants in cm-1:     0.377933     0.377779     0.204832 
Rotational constants in MHz : 11330.147068 11325.519796  6140.703460 

 Dipole components along the rotational axes: 
x,y,z [a.u.] :    -0.000964     0.000001     0.366583 
x,y,z [Debye]:    -0.002451     0.000002     0.931780 

 


           ************************************************************
           *        Program running with 18 parallel MPI-processes    *
           *              working on a common directory               *
           ************************************************************

-------------------------------------------------------------------------------
                               ORCA SCF HESSIAN
-------------------------------------------------------------------------------

                   --------- SHARK INITIALIZATION DONE ---------

Hessian of the Kohn-Sham DFT energy:
Kohn-Sham wavefunction type                      ... UKS
Hartree-Fock exchange scaling                    ...    0.196
Number of operators                              ...    2
Number of atoms                                  ...    4
Basis set dimensions                             ...  157
Integral neglect threshold                       ... 2.5e-11
Integral primitive cutoff                        ... 2.5e-12

Setting up DFT Hessian calculations              ... 

HESS GRID
---------

General Integration Accuracy     IntAcc      ... 4.629
Radial Grid Type                 RadialGrid  ... OptM3 with GC (2021)
Angular Grid (max. ang.)         AngularGrid ... 5 (Lebedev-434)
Angular grid pruning method      GridPruning ... 4 (adaptive)
Weight generation scheme         WeightScheme... Becke
Basis function cutoff            BFCut       ... 1.0000e-11
Integration weight cutoff        WCut        ... 1.0000e-14
Angular grids for H and He will be reduced by one unit
Partially contracted basis set               ... off
Rotationally invariant grid construction     ... off

Total number of grid points                  ...    39969
Total number of batches                      ...      627
Average number of points per batch           ...       63
Average number of grid points per atom       ...     9992

Building densities                               ... done   (      0.0 sec)
Calculating rho(r) on the grid                   ... done   (      0.1 sec)
Building xc-kernel on the grid                   ... done   (      0.1 sec)
                                                     done   (      0.7 sec)

Nuclear repulsion Hessian  (SHARK)               ... done   (      0.0 sec)

----------------------------------------------
Forming right-hand sides of CP-SCF equations     ...
----------------------------------------------
One electron integral derivatives  (SHARK)       ... done   (      0.0 sec)
Transforming the overlap derivative matrices     ... done   (      0.0 sec)
Making the Q(x) pseudodensities                  ... done   (      0.0 sec)
Adding the E*S(x)*S(y) terms to the Hessian      ... done   (      0.0 sec)
Calculating energy weighted overlap derivatives  ... done   (      0.2 sec)
Two electron integral derivatives (SHARK-RI)     ... done   (      2.5 sec)
Exchange-correlation integral derivatives        ... done   (      2.3 sec)
tr(F(y)Q(x)) contribution to the Hessian         ... done   (      0.0 sec)
Response fock operator R(S(x)) (SHARK-RIJCOSX)   ... done   (      1.0 sec)
XC Response fock operator R(S(x))                ... done   (      0.4 sec)
tr(F(y)S(x)) contribution to the Hessian         ... done   (      0.0 sec)
Transforming and finalizing RHSs                 ... done   (      0.0 sec)

----------------------------------------------
Solving the CP-SCF equations (RIJCOSX)           ...
----------------------------------------------
     CP-SCF ITERATION   0:   1.5970e-01 (   0.6 sec   0/ 12 done)
     CP-SCF ITERATION   1:   5.0115e-02 (   0.6 sec   0/ 12 done)
     CP-SCF ITERATION   2:   1.7982e-02 (   0.5 sec   0/ 12 done)
     CP-SCF ITERATION   3:   5.1403e-03 (   0.5 sec   0/ 12 done)
     CP-SCF ITERATION   4:   1.8620e-03 (   0.5 sec   0/ 12 done)
     CP-SCF ITERATION   5:   7.7054e-04 (   0.6 sec   1/ 12 done)
     CP-SCF ITERATION   6:   2.2361e-04 (   0.6 sec   3/ 12 done)
     CP-SCF ITERATION   7:   4.9262e-05 (   0.5 sec  12/ 12 done)
                    *** THE CP-SCF HAS CONVERGED ***

                                                 ... done   (      4.8 sec)
Forming perturbed density Hessian contributions  ... done   (      0.0 sec)
2nd integral derivative contribs (SHARK-RI)      ... done   (      7.3 sec)
Exchange-correlation Hessian                     ... done   (      0.9 sec)
Dispersion correction in the Hessian             ... done   (      0.1 sec)
Dipole derivatives                               ... (center of mass:  0.000025,  0.000000 -0.907227)done   (      0.2 sec)

Total SCF Hessian time: 0 days 0 hours 0 min 21 sec 

Writing the Hessian file to the disk             ... done


Maximum memory used throughout the entire SCFHESS-calculation: 141.9 MB

-----------------------
VIBRATIONAL FREQUENCIES
-----------------------

Scaling factor for frequencies =  1.000000000  (already applied!)

   0:         0.00 cm**-1
   1:         0.00 cm**-1
   2:         0.00 cm**-1
   3:         0.00 cm**-1
   4:         0.00 cm**-1
   5:         0.00 cm**-1
   6:       568.44 cm**-1
   7:       569.01 cm**-1
   8:       767.55 cm**-1
   9:      1107.35 cm**-1
  10:      1108.91 cm**-1
  11:      1109.84 cm**-1


------------
NORMAL MODES
------------

These modes are the Cartesian displacements weighted by the diagonal matrix
M(i,i)=1/sqrt(m[i]) where m[i] is the mass of the displaced atom
Thus, these vectors are normalized but *not* orthogonal

                  0          1          2          3          4          5    
      0       0.000000   0.000000   0.000000   0.000000   0.000000   0.000000
      1       0.000000   0.000000   0.000000   0.000000   0.000000   0.000000
      2       0.000000   0.000000   0.000000   0.000000   0.000000   0.000000
      3       0.000000   0.000000   0.000000   0.000000   0.000000   0.000000
      4       0.000000   0.000000   0.000000   0.000000   0.000000   0.000000
      5       0.000000   0.000000   0.000000   0.000000   0.000000   0.000000
      6       0.000000   0.000000   0.000000   0.000000   0.000000   0.000000
      7       0.000000   0.000000   0.000000   0.000000   0.000000   0.000000
      8       0.000000   0.000000   0.000000   0.000000   0.000000   0.000000
      9       0.000000   0.000000   0.000000   0.000000   0.000000   0.000000
     10       0.000000   0.000000   0.000000   0.000000   0.000000   0.000000
     11       0.000000   0.000000   0.000000   0.000000   0.000000   0.000000
                  6          7          8          9         10         11    
      0       0.305461  -0.000004  -0.000505  -0.552072   0.706669   0.000493
      1      -0.000005  -0.305127  -0.000000   0.000092  -0.000558   0.887406
      2       0.000828  -0.000001  -0.568983   0.654268   0.504964   0.000246
      3       0.479649  -0.000007   0.459898   0.408376  -0.098926  -0.000102
      4       0.000009   0.608442  -0.000000  -0.000005   0.000031  -0.049357
      5       0.063109  -0.000001   0.119752  -0.252262   0.040062   0.000050
      6      -0.336378   0.471364  -0.229789  -0.029658  -0.173999   0.119088
      7      -0.471338  -0.207760   0.397500   0.104760   0.233813  -0.255707
      8      -0.031817  -0.054791   0.119986  -0.080674  -0.179756   0.159194
      9      -0.336391  -0.471354  -0.229789  -0.029683  -0.173849  -0.119297
     10       0.471332  -0.207773  -0.397500  -0.104813  -0.233491  -0.255975
     11      -0.031815   0.054792   0.119987  -0.080707  -0.179556  -0.159400


-----------
IR SPECTRUM
-----------

 Mode   freq       eps      Int      T**2         TX        TY        TZ
       cm**-1   L/(mol*cm) km/mol    a.u.
----------------------------------------------------------------------------
  6:    568.44   0.000295    1.49  0.000162  ( 0.012719 -0.000000  0.000058)
  7:    569.01   0.000293    1.48  0.000161  (-0.000000 -0.012671 -0.000000)
  8:    767.55   0.002522   12.74  0.001025  (-0.000111 -0.000000 -0.032020)
  9:   1107.35   0.029561  149.39  0.008331  (-0.081755  0.000014  0.040579)
 10:   1108.91   0.042825  216.42  0.012052  ( 0.105163 -0.000083  0.031500)
 11:   1109.84   0.062969  318.22  0.017706  ( 0.000074  0.133062  0.000015)

* The epsilon (eps) is given for a Dirac delta lineshape.
** The dipole moment derivative (T) already includes vibrational overlap.

The first frequency considered to be a vibration is 6
The total number of vibrations considered is 6


--------------------------
THERMOCHEMISTRY AT 298.15K
--------------------------

Temperature         ... 298.15 K
Pressure            ... 1.00 atm
Total Mass          ... 69.00 AMU

Throughout the following assumptions are being made:
  (1) The electronic state is orbitally nondegenerate
      but the spin degeneracy is treated
  (2) There are no thermally accessible electronically excited states
  (3) Hindered rotations indicated by low frequency modes are not
      treated as such but are treated as vibrations and this may
      cause some error
  (4) All equations used are the standard statistical mechanics
      equations for an ideal gas
  (5) All vibrations are strictly harmonic

freq.     568.44  E(vib)   ...       0.11 
freq.     569.01  E(vib)   ...       0.11 
freq.     767.55  E(vib)   ...       0.06 
freq.    1107.35  E(vib)   ...       0.02 
freq.    1108.91  E(vib)   ...       0.02 
freq.    1109.84  E(vib)   ...       0.02 

------------
INNER ENERGY
------------

The inner energy is: U= E(el) + E(ZPE) + E(vib) + E(rot) + E(trans)
    E(el)   - is the total energy from the electronic structure calculation
              = E(kin-el) + E(nuc-el) + E(el-el) + E(nuc-nuc)
    E(ZPE)  - the the zero temperature vibrational energy from the frequency calculation
    E(vib)  - the the finite temperature correction to E(ZPE) due to population
              of excited vibrational states
    E(rot)  - is the rotational thermal energy
    E(trans)- is the translational thermal energy

Summary of contributions to the inner energy U:
Electronic energy                ...   -337.60954604 Eh
Zero point energy                ...      0.01191734 Eh       7.48 kcal/mol
Thermal vibrational correction   ...      0.00051665 Eh       0.32 kcal/mol
Thermal rotational correction    ...      0.00141627 Eh       0.89 kcal/mol
Thermal translational correction ...      0.00141627 Eh       0.89 kcal/mol
-----------------------------------------------------------------------
Total thermal energy                   -337.59427950 Eh


Summary of corrections to the electronic energy:
(perhaps to be used in another calculation)
Total thermal correction                  0.00334919 Eh       2.10 kcal/mol
Non-thermal (ZPE) correction              0.01191734 Eh       7.48 kcal/mol
-----------------------------------------------------------------------
Total correction                          0.01526654 Eh       9.58 kcal/mol


--------
ENTHALPY
--------

The enthalpy is H = U + kB*T
                kB is Boltzmann's constant
Total free energy                 ...   -337.59427950 Eh 
Thermal Enthalpy correction       ...      0.00094421 Eh       0.59 kcal/mol
-----------------------------------------------------------------------
Total Enthalpy                    ...   -337.59333529 Eh


Note: Rotational entropy computed according to Herzberg 
Infrared and Raman Spectra, Chapter V,1, Van Nostrand Reinhold, 1945 
Point Group:  Cs, Symmetry Number:   1  
Rotational constants in cm-1:     0.377933     0.377779     0.204832 

Vibrational entropy computed according to the QRRHO of S. Grimme
Chem.Eur.J. 2012 18 9955


-------
ENTROPY
-------

The entropy contributions are T*S = T*(S(el)+S(vib)+S(rot)+S(trans))
     S(el)   - electronic entropy
     S(vib)  - vibrational entropy
     S(rot)  - rotational entropy
     S(trans)- translational entropy
The entropies will be listed as multiplied by the temperature to get
units of energy

Electronic entropy                ...      0.00065446 Eh      0.41 kcal/mol
Vibrational entropy               ...      0.00067981 Eh      0.43 kcal/mol
Rotational entropy                ...      0.01117826 Eh      7.01 kcal/mol
Translational entropy             ...      0.01834582 Eh     11.51 kcal/mol
-----------------------------------------------------------------------
Final entropy term                ...      0.03085835 Eh     19.36 kcal/mol

In case the symmetry of your molecule has not been determined correctly
or in case you have a reason to use a different symmetry number we print 
out the resulting rotational entropy values for sn=1,12 :
 --------------------------------------------------------
|  sn= 1 | S(rot)=       0.01117826 Eh      7.01 kcal/mol|
|  sn= 2 | S(rot)=       0.01052380 Eh      6.60 kcal/mol|
|  sn= 3 | S(rot)=       0.01014097 Eh      6.36 kcal/mol|
|  sn= 4 | S(rot)=       0.00986935 Eh      6.19 kcal/mol|
|  sn= 5 | S(rot)=       0.00965866 Eh      6.06 kcal/mol|
|  sn= 6 | S(rot)=       0.00948651 Eh      5.95 kcal/mol|
|  sn= 7 | S(rot)=       0.00934097 Eh      5.86 kcal/mol|
|  sn= 8 | S(rot)=       0.00921489 Eh      5.78 kcal/mol|
|  sn= 9 | S(rot)=       0.00910368 Eh      5.71 kcal/mol|
|  sn=10 | S(rot)=       0.00900420 Eh      5.65 kcal/mol|
|  sn=11 | S(rot)=       0.00891421 Eh      5.59 kcal/mol|
|  sn=12 | S(rot)=       0.00883206 Eh      5.54 kcal/mol|
 --------------------------------------------------------


-------------------
GIBBS FREE ENERGY
-------------------

The Gibbs free energy is G = H - T*S

Total enthalpy                    ...   -337.59333529 Eh 
Total entropy correction          ...     -0.03085835 Eh    -19.36 kcal/mol
-----------------------------------------------------------------------
Final Gibbs free energy         ...   -337.62419364 Eh

For completeness - the Gibbs free energy minus the electronic energy
G-E(el)                           ...     -0.01464760 Eh     -9.19 kcal/mol


Timings for individual modules:

Sum of individual times         ...      169.410 sec (=   2.823 min)
GTO integral calculation        ...       51.942 sec (=   0.866 min)  30.7 %
SCF iterations                  ...       80.433 sec (=   1.341 min)  47.5 %
SCF Gradient evaluation         ...       12.847 sec (=   0.214 min)   7.6 %
Geometry relaxation             ...        0.247 sec (=   0.004 min)   0.1 %
Analytical frequency calculation...       23.941 sec (=   0.399 min)  14.1 %
                             ****ORCA TERMINATED NORMALLY****
TOTAL RUN TIME: 0 days 0 hours 3 minutes 2 seconds 385 msec

slurmID:    32260044
totalRuntime[s]:    182.427020172
