
                                 *****************
                                 * O   R   C   A *
                                 *****************

                                            #,                                       
                                            ###                                      
                                            ####                                     
                                            #####                                    
                                            ######                                   
                                           ########,                                 
                                     ,,################,,,,,                         
                               ,,#################################,,                 
                          ,,##########################################,,             
                       ,#########################################, ''#####,          
                    ,#############################################,,   '####,        
                  ,##################################################,,,,####,       
                ,###########''''           ''''###############################       
              ,#####''   ,,,,##########,,,,          '''####'''          '####       
            ,##' ,,,,###########################,,,                        '##       
           ' ,,###''''                  '''############,,,                           
         ,,##''                                '''############,,,,        ,,,,,,###''
      ,#''                                            '''#######################'''  
     '                                                          ''''####''''         
             ,#######,   #######,   ,#######,      ##                                
            ,#'     '#,  ##    ##  ,#'     '#,    #''#        ######   ,####,        
            ##       ##  ##   ,#'  ##            #'  '#       #        #'  '#        
            ##       ##  #######   ##           ,######,      #####,   #    #        
            '#,     ,#'  ##    ##  '#,     ,#' ,#      #,         ##   #,  ,#        
             '#######'   ##     ##  '#######'  #'      '#     #####' # '####'        



                  #######################################################
                  #                        -***-                        #
                  #          Department of theory and spectroscopy      #
                  #    Directorship and core code : Frank Neese         #
                  #        Max Planck Institute fuer Kohlenforschung    #
                  #                Kaiser Wilhelm Platz 1               #
                  #                 D-45470 Muelheim/Ruhr               #
                  #                      Germany                        #
                  #                                                     #
                  #                  All rights reserved                #
                  #                        -***-                        #
                  #######################################################


                         Program Version 5.0.4 -  RELEASE  -


 With contributions from (in alphabetic order):
   Daniel Aravena         : Magnetic Suceptibility
   Michael Atanasov       : Ab Initio Ligand Field Theory (pilot matlab implementation)
   Alexander A. Auer      : GIAO ZORA, VPT2 properties, NMR spectrum
   Ute Becker             : Parallelization
   Giovanni Bistoni       : ED, misc. LED, open-shell LED, HFLD
   Martin Brehm           : Molecular dynamics
   Dmytro Bykov           : SCF Hessian
   Vijay G. Chilkuri      : MRCI spin determinant printing, contributions to CSF-ICE
   Dipayan Datta          : RHF DLPNO-CCSD density
   Achintya Kumar Dutta   : EOM-CC, STEOM-CC
   Dmitry Ganyushin       : Spin-Orbit,Spin-Spin,Magnetic field MRCI
   Miquel Garcia          : C-PCM and meta-GGA Hessian, CC/C-PCM, Gaussian charge scheme
   Yang Guo               : DLPNO-NEVPT2, F12-NEVPT2, CIM, IAO-localization
   Andreas Hansen         : Spin unrestricted coupled pair/coupled cluster methods
   Benjamin Helmich-Paris : MC-RPA, TRAH-SCF, COSX integrals
   Lee Huntington         : MR-EOM, pCC
   Robert Izsak           : Overlap fitted RIJCOSX, COSX-SCS-MP3, EOM
   Marcus Kettner         : VPT2
   Christian Kollmar      : KDIIS, OOCD, Brueckner-CCSD(T), CCSD density, CASPT2, CASPT2-K
   Simone Kossmann        : Meta GGA functionals, TD-DFT gradient, OOMP2, MP2 Hessian
   Martin Krupicka        : Initial AUTO-CI
   Lucas Lang             : DCDCAS
   Marvin Lechner         : AUTO-CI (C++ implementation), FIC-MRCC
   Dagmar Lenk            : GEPOL surface, SMD
   Dimitrios Liakos       : Extrapolation schemes; Compound Job, initial MDCI parallelization
   Dimitrios Manganas     : Further ROCIS development; embedding schemes
   Dimitrios Pantazis     : SARC Basis sets
   Anastasios Papadopoulos: AUTO-CI, single reference methods and gradients
   Taras Petrenko         : DFT Hessian,TD-DFT gradient, ASA, ECA, R-Raman, ABS, FL, XAS/XES, NRVS
   Peter Pinski           : DLPNO-MP2, DLPNO-MP2 Gradient
   Christoph Reimann      : Effective Core Potentials
   Marius Retegan         : Local ZFS, SOC
   Christoph Riplinger    : Optimizer, TS searches, QM/MM, DLPNO-CCSD(T), (RO)-DLPNO pert. Triples
   Tobias Risthaus        : Range-separated hybrids, TD-DFT gradient, RPA, STAB
   Michael Roemelt        : Original ROCIS implementation
   Masaaki Saitow         : Open-shell DLPNO-CCSD energy and density
   Barbara Sandhoefer     : DKH picture change effects
   Avijit Sen             : IP-ROCIS
   Kantharuban Sivalingam : CASSCF convergence, NEVPT2, FIC-MRCI
   Bernardo de Souza      : ESD, SOC TD-DFT
   Georgi Stoychev        : AutoAux, RI-MP2 NMR, DLPNO-MP2 response
   Willem Van den Heuvel  : Paramagnetic NMR
   Boris Wezisla          : Elementary symmetry handling
   Frank Wennmohs         : Technical directorship


 We gratefully acknowledge several colleagues who have allowed us to
 interface, adapt or use parts of their codes:
   Stefan Grimme, W. Hujo, H. Kruse, P. Pracht,  : VdW corrections, initial TS optimization,
                  C. Bannwarth, S. Ehlert          DFT functionals, gCP, sTDA/sTD-DF
   Ed Valeev, F. Pavosevic, A. Kumar             : LibInt (2-el integral package), F12 methods
   Garnet Chan, S. Sharma, J. Yang, R. Olivares  : DMRG
   Ulf Ekstrom                                   : XCFun DFT Library
   Mihaly Kallay                                 : mrcc  (arbitrary order and MRCC methods)
   Jiri Pittner, Ondrej Demel                    : Mk-CCSD
   Frank Weinhold                                : gennbo (NPA and NBO analysis)
   Christopher J. Cramer and Donald G. Truhlar   : smd solvation model
   Lars Goerigk                                  : TD-DFT with DH, B97 family of functionals
   V. Asgeirsson, H. Jonsson                     : NEB implementation
   FAccTs GmbH                                   : IRC, NEB, NEB-TS, DLPNO-Multilevel, CI-OPT
                                                   MM, QMMM, 2- and 3-layer-ONIOM, Crystal-QMMM,
                                                   LR-CPCM, SF, NACMEs, symmetry and pop. for TD-DFT,
                                                   nearIR, NL-DFT gradient (VV10), updates on ESD,
                                                   ML-optimized integration grids
   S Lehtola, MJT Oliveira, MAL Marques          : LibXC Library
   Liviu Ungur et al                             : ANISO software


 Your calculation uses the libint2 library for the computation of 2-el integrals
 For citations please refer to: http://libint.valeyev.net

 Your ORCA version has been built with support for libXC version: 5.1.0
 For citations please refer to: https://tddft.org/programs/libxc/

 This ORCA versions uses:
   CBLAS   interface :  Fast vector & matrix operations
   LAPACKE interface :  Fast linear algebra routines
   SCALAPACK package :  Parallel linear algebra routines
   Shared memory     :  Shared parallel matrices
   BLAS/LAPACK       :  OpenBLAS 0.3.15  USE64BITINT DYNAMIC_ARCH NO_AFFINITY SkylakeX SINGLE_THREADED
        Core in use  :  SkylakeX
   Copyright (c) 2011-2014, The OpenBLAS Project


Your calculation utilizes the atom-pairwise dispersion correction
with the zero-damping scheme (D30)
Cite in your paper:
S.Grimme, J.Antony, S.Ehrlich and H.Krieg, J.Chem.Phys., 132, (2010), 154104 
   

XCFun DFT library Copyright 2009-2010 Ulf Ekstrom and contributors.
See http://admol.org/xcfun for more information.
This is free software; see the source code for copying conditions.
There is ABSOLUTELY NO WARRANTY; not even for MERCHANTABILITY or FITNESS FOR A PARTICULAR PURPOSE.
For details see the documentation.
Scientific users of this library should cite U. Ekstrom, L. Visscher, R. Bast, A. J. Thorvaldsen and K. Ruud;
J.Chem.Theor.Comp. 2010, DOI: 10.1021/ct100117s
XCFun Version 0.99 

================================================================================

----- Orbital basis set information -----
Your calculation utilizes the basis: def2-TZVPD
   F. Weigend and R. Ahlrichs, Phys. Chem. Chem. Phys. 7, 3297 (2005).
   D. Rappoport and F. Furche, J. Chem. Phys. 133 134105 (2010).

----- AuxJ basis set information -----
Your calculation utilizes the auxiliary basis: def2/J
   F. Weigend, Phys. Chem. Chem. Phys. 8, 1057 (2006).

================================================================================
                                        WARNINGS
                       Please study these warnings very carefully!
================================================================================


WARNING: Geometry Optimization
  ===> : Switching off AutoStart
         For restart on a previous wavefunction, please use MOREAD

INFO   : the flag for use of the SHARK integral package has been found!

================================================================================
                                       INPUT FILE
================================================================================
NAME = /beegfs/scratch/ispackman/PFAS_EPR_calcs/benchmark/JChemEd_CF3_radical/CF3_opt_IN-PROGRESS/CF3_opt.inp
|  1> # CF3 radical
|  2>   
|  3> ! UKS TightSCF wB97x-D3 def2-TZVPD opt freq  
|  4> 
|  5> %maxcore 1000
|  6> %pal
|  7> nprocs 18
|  8> end
|  9> 
| 10> * xyz 0 2  
| 11>   C   -0.00578552515387      0.00365205368861      0.32216033667858
| 12>   F   0.10566249170329     -1.24832598008937     -0.06471214757515
| 13>   F   -1.13848234839565      0.53246615426204     -0.08636300466232
| 14>   F   1.02625038184624      0.71957277213872     -0.06731218444111
| 15> *                            ****END OF INPUT****
================================================================================

                       *****************************
                       * Geometry Optimization Run *
                       *****************************

Geometry optimization settings:
Update method            Update   .... BFGS
Choice of coordinates    CoordSys .... Z-matrix Internals
Initial Hessian          InHess   .... Almoef's Model

Convergence Tolerances:
Energy Change            TolE     ....  5.0000e-06 Eh
Max. Gradient            TolMAXG  ....  3.0000e-04 Eh/bohr
RMS Gradient             TolRMSG  ....  1.0000e-04 Eh/bohr
Max. Displacement        TolMAXD  ....  4.0000e-03 bohr
RMS Displacement         TolRMSD  ....  2.0000e-03 bohr
Strict Convergence                ....  False
------------------------------------------------------------------------------
                        ORCA OPTIMIZATION COORDINATE SETUP
------------------------------------------------------------------------------

The optimization will be done in new redundant internal coordinates
Making redundant internal coordinates   ...  (new redundants) done
Evaluating the initial hessian          ...  (Almloef) done
Evaluating the coordinates              ...  done
Calculating the B-matrix                .... done
Calculating the G-matrix                .... done
Diagonalizing the G-matrix              .... done
The first mode is                       ....    1
The number of degrees of freedom        ....    6

    -----------------------------------------------------------------
                    Redundant Internal Coordinates


    -----------------------------------------------------------------
         Definition                    Initial Value    Approx d2E/dq
    -----------------------------------------------------------------
      1. B(F   1,C   0)                  1.3151         0.684594   
      2. B(F   2,C   0)                  1.3151         0.684597   
      3. B(F   3,C   0)                  1.3150         0.684796   
      4. A(F   1,C   0,F   3)          111.3855         0.440054   
      5. A(F   2,C   0,F   3)          111.4091         0.440054   
      6. A(F   1,C   0,F   2)          111.3710         0.440031   
      7. I(F   1,F   3,F   2,C   0)    -49.6889         0.017590   
    -----------------------------------------------------------------

Number of atoms                         .... 4
Number of degrees of freedom            .... 7

         *************************************************************
         *                GEOMETRY OPTIMIZATION CYCLE   1            *
         *************************************************************
---------------------------------
CARTESIAN COORDINATES (ANGSTROEM)
---------------------------------
  C     -0.005786    0.003652    0.322160
  F      0.105662   -1.248326   -0.064712
  F     -1.138482    0.532466   -0.086363
  F      1.026250    0.719573   -0.067312

----------------------------
CARTESIAN COORDINATES (A.U.)
----------------------------
  NO LB      ZA    FRAG     MASS         X           Y           Z
   0 C     6.0000    0    12.011   -0.010933    0.006901    0.608795
   1 F     9.0000    0    18.998    0.199673   -2.358994   -0.122288
   2 F     9.0000    0    18.998   -2.151420    1.006215   -0.163202
   3 F     9.0000    0    18.998    1.939332    1.359795   -0.127202

--------------------------------
INTERNAL COORDINATES (ANGSTROEM)
--------------------------------
 C      0   0   0     0.000000000000     0.00000000     0.00000000
 F      1   0   0     1.315119757511     0.00000000     0.00000000
 F      1   2   0     1.315118917348   111.37101978     0.00000000
 F      1   2   3     1.315039707823   111.38547872   234.95635856

---------------------------
INTERNAL COORDINATES (A.U.)
---------------------------
 C      0   0   0     0.000000000000     0.00000000     0.00000000
 F      1   0   0     2.485216175005     0.00000000     0.00000000
 F      1   2   0     2.485214587328   111.37101978     0.00000000
 F      1   2   3     2.485064903017   111.38547872   234.95635856

---------------------
BASIS SET INFORMATION
---------------------
There are 2 groups of distinct atoms

 Group   1 Type C   : 12s6p3d1f contracted to 6s3p3d1f pattern {621111/411/111/1}
 Group   2 Type F   : 12s7p3d1f contracted to 6s4p3d1f pattern {621111/4111/111/1}

Atom   0C    basis set group =>   1
Atom   1F    basis set group =>   2
Atom   2F    basis set group =>   2
Atom   3F    basis set group =>   2
---------------------------------
AUXILIARY/J BASIS SET INFORMATION
---------------------------------
There are 2 groups of distinct atoms

 Group   1 Type C   : 12s5p4d2f1g contracted to 6s4p3d1f1g pattern {711111/2111/211/2/1}
 Group   2 Type F   : 12s5p4d2f1g contracted to 6s4p3d1f1g pattern {711111/2111/211/2/1}

Atom   0C    basis set group =>   1
Atom   1F    basis set group =>   2
Atom   2F    basis set group =>   2
Atom   3F    basis set group =>   2


           ************************************************************
           *        Program running with 18 parallel MPI-processes    *
           *              working on a common directory               *
           ************************************************************
------------------------------------------------------------------------------
                           ORCA GTO INTEGRAL CALCULATION
                           -- RI-GTO INTEGRALS CHOSEN --
------------------------------------------------------------------------------
------------------------------------------------------------------------------
                   ___                                                        
                  /   \      - P O W E R E D   B Y -                         
                 /     \                                                     
                 |  |  |   _    _      __       _____    __    __             
                 |  |  |  | |  | |    /  \     |  _  \  |  |  /  |          
                  \  \/   | |  | |   /    \    | | | |  |  | /  /          
                 / \  \   | |__| |  /  /\  \   | |_| |  |  |/  /          
                |  |  |   |  __  | /  /__\  \  |    /   |      \           
                |  |  |   | |  | | |   __   |  |    \   |  |\   \          
                \     /   | |  | | |  |  |  |  | |\  \  |  | \   \       
                 \___/    |_|  |_| |__|  |__|  |_| \__\ |__|  \__/        
                                                                              
                      - O R C A' S   B I G   F R I E N D -                    
                                      &                                       
                       - I N T E G R A L  F E E D E R -                       
                                                                              
 v1 FN, 2020, v2 2021                                                         
------------------------------------------------------------------------------


Reading SHARK input file /beegfs/scratch/ispackman/PFAS_EPR_calcs/benchmark/JChemEd_CF3_radical/CF3_opt_IN-PROGRESS/CF3_opt.SHARKINP.tmp ... ok
----------------------
SHARK INTEGRAL PACKAGE
----------------------

Number of atoms                             ...      4
Number of basis functions                   ...    157
Number of shells                            ...     55
Maximum angular momentum                    ...      3
Integral batch strategy                     ... SHARK/LIBINT Hybrid
RI-J (if used) integral strategy            ... SPLIT-RIJ (Revised 2003 algorithm where possible)
Printlevel                                  ...      1
Contraction scheme used                     ... SEGMENTED contraction
Coulomb Range Separation                    ... NOT USED
Exchange Range Separation                   ... Long Range
   Mu parameter                             ...  0.250000
   Scaling (regular/separated)              ...  0.195728  0.804272
Finite Nucleus Model                        ... NOT USED
Auxiliary Coulomb fitting basis             ... AVAILABLE
   # of basis functions in Aux-J            ...    196
   # of shells in Aux-J                     ...     60
   Maximum angular momentum in Aux-J        ...      4
Auxiliary J/K fitting basis                 ... NOT available
Auxiliary Correlation fitting basis         ... NOT available
Auxiliary 'external' fitting basis          ... NOT available
Integral threshold                          ...     2.500000e-11
Primitive cut-off                           ...     2.500000e-12
Primitive pair pre-selection threshold      ...     2.500000e-12

Calculating pre-screening integrals         ... done (  0.1 sec) Dimension = 55
Organizing shell pair data                  ... done (  0.0 sec)
Shell pair information
Total number of shell pairs                 ...      1540
Shell pairs after pre-screening             ...      1504
Total number of primitive shell pairs       ...      4274
Primitive shell pairs kept                  ...      3533
          la=0 lb=0:    282 shell pairs
          la=1 lb=0:    354 shell pairs
          la=1 lb=1:    120 shell pairs
          la=2 lb=0:    276 shell pairs
          la=2 lb=1:    180 shell pairs
          la=2 lb=2:     78 shell pairs
          la=3 lb=0:     96 shell pairs
          la=3 lb=1:     60 shell pairs
          la=3 lb=2:     48 shell pairs
          la=3 lb=3:     10 shell pairs

Calculating one electron integrals          ... done (  0.0 sec)
Calculating RI/J V-Matrix + Cholesky decomp.... done (  0.1 sec)
Calculating Nuclear repulsion               ... done (  0.0 sec) ENN=    124.372805019919 Eh

SHARK setup successfully completed in   0.8 seconds

Maximum memory used throughout the entire GTOINT-calculation: 15.2 MB


           ************************************************************
           *        Program running with 18 parallel MPI-processes    *
           *              working on a common directory               *
           ************************************************************
-------------------------------------------------------------------------------
                                 ORCA SCF
-------------------------------------------------------------------------------

------------
SCF SETTINGS
------------
Hamiltonian:
 Density Functional     Method          .... DFT(GTOs)
 Exchange Functional    Exchange        .... WB97X-D3
 Correlation Functional Correlation     .... WB97X-D3
 Gradients option       PostSCFGGA      .... off
 Hybrid DFT is turned on
   Fraction HF Exchange ScalHFX         ....  0.195728
   Scaling of DF-GGA-X  ScalDFX         ....  0.000000
   Scaling of DF-GGA-C  ScalDFC         ....  1.000000
   Scaling of DF-LDA-C  ScalLDAC        ....  1.000000
   Perturbative correction              ....  0.000000
   Density functional embedding theory  .... OFF
 Long-range corrected/Screened/Range-Separated Hybrid DFT is turned on
   Amount of maximum screened exact exchange              ....  0.804272
   Range separation parameter mu (erf(mu*r12)/r12)        ....  0.250000
 RI-approximation to the Coulomb term is turned on
   Number of AuxJ basis functions       .... 196
   RIJ-COSX (HFX calculated with COS-X)).... on


General Settings:
 Integral files         IntName         .... /beegfs/scratch/ispackman/PFAS_EPR_calcs/benchmark/JChemEd_CF3_radical/CF3_opt_IN-PROGRESS/CF3_opt
 Hartree-Fock type      HFTyp           .... UHF
 Total Charge           Charge          ....    0
 Multiplicity           Mult            ....    2
 Number of Electrons    NEL             ....   33
 Basis Dimension        Dim             ....  157
 Nuclear Repulsion      ENuc            ....    124.3728050199 Eh

Convergence Acceleration:
 DIIS                   CNVDIIS         .... on
   Start iteration      DIISMaxIt       ....    12
   Startup error        DIISStart       ....  0.200000
   # of expansion vecs  DIISMaxEq       ....     5
   Bias factor          DIISBfac        ....   1.050
   Max. coefficient     DIISMaxC        ....  10.000
 Trust-Rad. Augm. Hess. CNVTRAH         .... auto
   Auto Start mean grad. ratio tolernc. ....  1.125000
   Auto Start start iteration           ....    20
   Auto Start num. interpolation iter.  ....    10
   Max. Number of Micro iterations      ....    16
   Max. Number of Macro iterations      .... Maxiter - #DIIS iter
   Number of Davidson start vectors     ....     2
   Converg. threshold I  (grad. norm)   ....   1.000e-05
   Converg. threshold II (energy diff.) ....   1.000e-08
   Grad. Scal. Fac. for Micro threshold ....   0.100
   Minimum threshold for Micro iter.    ....   0.010
   NR start threshold (gradient norm)   ....   0.001
   Initial trust radius                 ....   0.400
   Minimum AH scaling param. (alpha)    ....   1.000
   Maximum AH scaling param. (alpha)    .... 1000.000
   Orbital update algorithm             .... Taylor
   White noise on init. David. guess    .... on
   Maximum white noise                  ....   0.010
   Quad. conv. algorithm                .... NR
 SOSCF                  CNVSOSCF        .... off
 Level Shifting         CNVShift        .... on
   Level shift para.    LevelShift      ....    0.2500
   Turn off err/grad.   ShiftErr        ....    0.0010
 Zerner damping         CNVZerner       .... off
 Static damping         CNVDamp         .... on
   Fraction old density DampFac         ....    0.7000
   Max. Damping (<1)    DampMax         ....    0.9800
   Min. Damping (>=0)   DampMin         ....    0.0000
   Turn off err/grad.   DampErr         ....    0.1000
 Fernandez-Rico         CNVRico         .... off

SCF Procedure:
 Maximum # iterations   MaxIter         ....   125
 SCF integral mode      SCFMode         .... Direct
   Integral package                     .... SHARK and LIBINT hybrid scheme
 Reset frequency        DirectResetFreq ....    20
 Integral Threshold     Thresh          ....  2.500e-11 Eh
 Primitive CutOff       TCut            ....  2.500e-12 Eh

Convergence Tolerance:
 Convergence Check Mode ConvCheckMode   .... Total+1el-Energy
 Convergence forced     ConvForced      .... 0
 Energy Change          TolE            ....  1.000e-08 Eh
 1-El. energy change                    ....  1.000e-05 Eh
 DIIS Error             TolErr          ....  5.000e-07


Diagonalization of the overlap matrix:
Smallest eigenvalue                        ... 3.091e-04
Time for diagonalization                   ...    0.008 sec
Threshold for overlap eigenvalues          ... 1.000e-08
Number of eigenvalues below threshold      ... 0
Time for construction of square roots      ...    0.021 sec
Total time needed                          ...    0.031 sec

Time for model grid setup =    0.061 sec

------------------------------
INITIAL GUESS: MODEL POTENTIAL
------------------------------
Loading Hartree-Fock densities                     ... done
Calculating cut-offs                               ... done
Initializing the effective Hamiltonian             ... done
Setting up the integral package (SHARK)            ... done
Starting the Coulomb interaction                   ... done (   0.2 sec)
Reading the grid                                   ... done
Mapping shells                                     ... done
Starting the XC term evaluation                    ... done (   0.0 sec)
  promolecular density results
     # of electrons  =     32.999893728
     EX              =    -35.095993185
     EC              =     -1.144784716
     EX+EC           =    -36.240777901
Transforming the Hamiltonian                       ... done (   0.0 sec)
Diagonalizing the Hamiltonian                      ... done (   0.0 sec)
Back transforming the eigenvectors                 ... done (   0.0 sec)
Now organizing SCF variables                       ... done
                      ------------------
                      INITIAL GUESS DONE (   0.3 sec)
                      ------------------
-------------------
DFT GRID GENERATION
-------------------

General Integration Accuracy     IntAcc      ... 4.388
Radial Grid Type                 RadialGrid  ... OptM3 with GC (2021)
Angular Grid (max. ang.)         AngularGrid ... 4 (Lebedev-302)
Angular grid pruning method      GridPruning ... 4 (adaptive)
Weight generation scheme         WeightScheme... Becke
Basis function cutoff            BFCut       ... 1.0000e-11
Integration weight cutoff        WCut        ... 1.0000e-14
Angular grids for H and He will be reduced by one unit
Partially contracted basis set               ... off
Rotationally invariant grid construction     ... off

Total number of grid points                  ...    25769
Total number of batches                      ...      405
Average number of points per batch           ...       63
Average number of grid points per atom       ...     6442
Time for grid setup =    0.224 sec

--------------------
COSX GRID GENERATION
--------------------

GRIDX 1
-------
General Integration Accuracy     IntAcc      ... 3.816
Radial Grid Type                 RadialGrid  ... OptM3 with GC (2021)
Angular Grid (max. ang.)         AngularGrid ... 1 (Lebedev-50)
Angular grid pruning method      GridPruning ... 4 (adaptive)
Weight generation scheme         WeightScheme... Becke
Basis function cutoff            BFCut       ... 1.0000e-11
Integration weight cutoff        WCut        ... 1.0000e-14
Angular grids for H and He will be reduced by one unit
Partially contracted basis set               ... on
Rotationally invariant grid construction     ... off

Total number of grid points                  ...     3267
Total number of batches                      ...       52
Average number of points per batch           ...       62
Average number of grid points per atom       ...      817
UseSFitting                                  ... on

GRIDX 2
-------
General Integration Accuracy     IntAcc      ... 4.020
Radial Grid Type                 RadialGrid  ... OptM3 with GC (2021)
Angular Grid (max. ang.)         AngularGrid ... 2 (Lebedev-110)
Angular grid pruning method      GridPruning ... 4 (adaptive)
Weight generation scheme         WeightScheme... Becke
Basis function cutoff            BFCut       ... 1.0000e-11
Integration weight cutoff        WCut        ... 1.0000e-14
Angular grids for H and He will be reduced by one unit
Partially contracted basis set               ... on
Rotationally invariant grid construction     ... off

Total number of grid points                  ...     9137
Total number of batches                      ...      145
Average number of points per batch           ...       63
Average number of grid points per atom       ...     2284
UseSFitting                                  ... on

GRIDX 3
-------
General Integration Accuracy     IntAcc      ... 4.338
Radial Grid Type                 RadialGrid  ... OptM3 with GC (2021)
Angular Grid (max. ang.)         AngularGrid ... 3 (Lebedev-194)
Angular grid pruning method      GridPruning ... 4 (adaptive)
Weight generation scheme         WeightScheme... Becke
Basis function cutoff            BFCut       ... 1.0000e-11
Integration weight cutoff        WCut        ... 1.0000e-14
Angular grids for H and He will be reduced by one unit
Partially contracted basis set               ... on
Rotationally invariant grid construction     ... off

Total number of grid points                  ...    19695
Total number of batches                      ...      310
Average number of points per batch           ...       63
Average number of grid points per atom       ...     4924
UseSFitting                                  ... on

Time for X-Grid setup             =    0.346 sec

--------------
SCF ITERATIONS
--------------
ITER       Energy         Delta-E        Max-DP      RMS-DP      [F,P]     Damp
               ***  Starting incremental Fock matrix formation  ***
  0   -337.5811130634   0.000000000000 0.01471821  0.00035914  0.0621948 0.7000
  1   -337.6029158025  -0.021802739068 0.00931567  0.00024373  0.0302913 0.7000
                               ***Turning on DIIS***
  2   -337.6123296820  -0.009413879453 0.01880811  0.00047973  0.0158512 0.0000
  3   -337.6296834144  -0.017353732443 0.00618499  0.00014117  0.0144545 0.0000
  4   -337.6322674862  -0.002584071816 0.00497478  0.00009738  0.0040703 0.0000
  5   -337.6325382507  -0.000270764510 0.00400107  0.00006458  0.0025699 0.0000
  6   -337.6326271180  -0.000088867220 0.00285261  0.00004339  0.0011942 0.0000
  7   -337.6326522908  -0.000025172889 0.00283582  0.00003792  0.0005413 0.0000
               *** Restarting incremental Fock matrix formation ***
                                   *** Resetting DIIS ***
  8   -337.6326604155  -0.000008124617 0.00071086  0.00000880  0.0000605 0.0000
  9   -337.6326605377  -0.000000122289 0.00009227  0.00000145  0.0000374 0.0000
 10   -337.6326605597  -0.000000021908 0.00005244  0.00000073  0.0000174 0.0000
 11   -337.6326605686  -0.000000008946 0.00001545  0.00000029  0.0000072 0.0000
 12   -337.6326605669   0.000000001711 0.00001338  0.00000016  0.0000021 0.0000
                 **** Energy Check signals convergence ****

               *****************************************************
               *                     SUCCESS                       *
               *           SCF CONVERGED AFTER  13 CYCLES          *
               *****************************************************

Old exchange energy                            =    -10.537262917 Eh
New exchange energy                            =    -10.537264644 Eh
Exchange energy change after final integration =     -0.000001727 Eh
Total energy after final integration           =   -337.632662292 Eh
Final COS-X integration done in                =     0.397 sec

----------------
TOTAL SCF ENERGY
----------------

Total Energy       :         -337.63266229 Eh           -9187.45182 eV

Components:
Nuclear Repulsion  :          124.37280502 Eh            3384.35608 eV
Electronic Energy  :         -462.00546731 Eh          -12571.80790 eV
One Electron Energy:         -715.52928154 Eh          -19470.54161 eV
Two Electron Energy:          253.52381422 Eh            6898.73371 eV
Max COSX asymmetry :            0.00000054 Eh               0.00001 eV

Virial components:
Potential Energy   :         -674.23162810 Eh          -18346.77533 eV
Kinetic Energy     :          336.59896581 Eh            9159.32351 eV
Virial Ratio       :            2.00307100


DFT components:
N(Alpha)           :       16.999872499711 electrons
N(Beta)            :       15.999914150978 electrons
N(Total)           :       32.999786650688 electrons
E(XC)              :      -26.192989427104 Eh       
DFET-embed. en.    :        0.000000000000 Eh       

---------------
SCF CONVERGENCE
---------------

  Last Energy change         ...    1.4613e-09  Tolerance :   1.0000e-08
  Last MAX-Density change    ...    0.0000e+00  Tolerance :   1.0000e-07
  Last RMS-Density change    ...    0.0000e+00  Tolerance :   5.0000e-09
  Last DIIS Error            ...    5.1029e-07  Tolerance :   5.0000e-07

             **** THE GBW FILE WAS UPDATED (/beegfs/scratch/ispackman/PFAS_EPR_calcs/benchmark/JChemEd_CF3_radical/CF3_opt_IN-PROGRESS/CF3_opt.gbw) ****
             **** DENSITY /beegfs/scratch/ispackman/PFAS_EPR_calcs/benchmark/JChemEd_CF3_radical/CF3_opt_IN-PROGRESS/CF3_opt.scfp WAS UPDATED ****
             **** ENERGY FILE WAS UPDATED (/beegfs/scratch/ispackman/PFAS_EPR_calcs/benchmark/JChemEd_CF3_radical/CF3_opt_IN-PROGRESS/CF3_opt.en.tmp) ****
----------------------
UHF SPIN CONTAMINATION
----------------------

Warning: in a DFT calculation there is little theoretical justification to 
         calculate <S**2> as in Hartree-Fock theory. We will do it anyways
         but you should keep in mind that the values have only limited relevance

Expectation value of <S**2>     :     0.751967
Ideal value S*(S+1) for S=0.5   :     0.750000
Deviation                       :     0.001967

             **** THE GBW FILE WAS UPDATED (/beegfs/scratch/ispackman/PFAS_EPR_calcs/benchmark/JChemEd_CF3_radical/CF3_opt_IN-PROGRESS/CF3_opt.gbw) ****
             **** DENSITY /beegfs/scratch/ispackman/PFAS_EPR_calcs/benchmark/JChemEd_CF3_radical/CF3_opt_IN-PROGRESS/CF3_opt.scfp WAS UPDATED ****
----------------
ORBITAL ENERGIES
----------------
                 SPIN UP ORBITALS
  NO   OCC          E(Eh)            E(eV) 
   0   1.0000     -24.853516      -676.2986 
   1   1.0000     -24.853477      -676.2975 
   2   1.0000     -24.853444      -676.2966 
   3   1.0000     -10.540160      -286.8123 
   4   1.0000      -1.470696       -40.0197 
   5   1.0000      -1.383709       -37.6526 
   6   1.0000      -1.383627       -37.6504 
   7   1.0000      -0.838971       -22.8296 
   8   1.0000      -0.733864       -19.9695 
   9   1.0000      -0.733824       -19.9684 
  10   1.0000      -0.701377       -19.0854 
  11   1.0000      -0.607369       -16.5273 
  12   1.0000      -0.607335       -16.5264 
  13   1.0000      -0.573740       -15.6123 
  14   1.0000      -0.573688       -15.6108 
  15   1.0000      -0.547648       -14.9023 
  16   1.0000      -0.372749       -10.1430 
  17   0.0000       0.069856         1.9009 
  18   0.0000       0.103814         2.8249 
  19   0.0000       0.103817         2.8250 
  20   0.0000       0.114518         3.1162 
  21   0.0000       0.158141         4.3032 
  22   0.0000       0.158154         4.3036 
  23   0.0000       0.173776         4.7287 
  24   0.0000       0.173783         4.7289 
  25   0.0000       0.180245         4.9047 
  26   0.0000       0.238426         6.4879 
  27   0.0000       0.246875         6.7178 
  28   0.0000       0.246958         6.7201 
  29   0.0000       0.255561         6.9542 
  30   0.0000       0.321260         8.7419 
  31   0.0000       0.364476         9.9179 
  32   0.0000       0.364562         9.9202 
  33   0.0000       0.367965        10.0128 
  34   0.0000       0.386382        10.5140 
  35   0.0000       0.386391        10.5142 
  36   0.0000       0.405292        11.0286 
  37   0.0000       0.422202        11.4887 
  38   0.0000       0.422209        11.4889 
  39   0.0000       0.486316        13.2333 
  40   0.0000       0.487667        13.2701 
  41   0.0000       0.487707        13.2712 
  42   0.0000       0.587817        15.9953 
  43   0.0000       0.655352        17.8330 
  44   0.0000       0.655396        17.8342 
  45   0.0000       0.675425        18.3792 
  46   0.0000       0.675434        18.3795 
  47   0.0000       0.696561        18.9544 
  48   0.0000       0.696606        18.9556 
  49   0.0000       0.714592        19.4450 
  50   0.0000       0.739414        20.1205 
  51   0.0000       0.748343        20.3634 
  52   0.0000       0.785021        21.3615 
  53   0.0000       0.785083        21.3632 
  54   0.0000       0.869958        23.6728 
  55   0.0000       0.876651        23.8549 
  56   0.0000       0.876679        23.8556 
  57   0.0000       0.952177        25.9101 
  58   0.0000       0.979907        26.6646 
  59   0.0000       0.979931        26.6653 
  60   0.0000       1.061876        28.8951 
  61   0.0000       1.061920        28.8963 
  62   0.0000       1.082507        29.4565 
  63   0.0000       1.161143        31.5963 
  64   0.0000       1.161955        31.6184 
  65   0.0000       1.162000        31.6196 
  66   0.0000       1.240479        33.7551 
  67   0.0000       1.257412        34.2159 
  68   0.0000       1.257455        34.2171 
  69   0.0000       1.292794        35.1787 
  70   0.0000       1.326356        36.0920 
  71   0.0000       1.326458        36.0948 
  72   0.0000       1.460309        39.7370 
  73   0.0000       1.460341        39.7379 
  74   0.0000       1.698753        46.2254 
  75   0.0000       2.116043        57.5804 
  76   0.0000       2.132473        58.0275 
  77   0.0000       2.132513        58.0286 
  78   0.0000       2.185098        59.4595 
  79   0.0000       2.214079        60.2481 
  80   0.0000       2.214110        60.2490 
  81   0.0000       2.275444        61.9180 
  82   0.0000       2.307072        62.7786 
  83   0.0000       2.342232        63.7354 
  84   0.0000       2.342267        63.7363 
  85   0.0000       2.517513        68.5050 
  86   0.0000       2.517610        68.5077 
  87   0.0000       2.612412        71.0874 
  88   0.0000       2.660063        72.3840 
  89   0.0000       2.660208        72.3880 
  90   0.0000       2.807926        76.4076 
  91   0.0000       2.960093        80.5482 
  92   0.0000       2.960139        80.5495 
  93   0.0000       3.144469        85.5654 
  94   0.0000       3.212827        87.4255 
  95   0.0000       3.212930        87.4283 
  96   0.0000       3.232019        87.9477 
  97   0.0000       3.325435        90.4897 
  98   0.0000       3.325556        90.4930 
  99   0.0000       3.346803        91.0711 
 100   0.0000       3.346879        91.0732 
 101   0.0000       3.401504        92.5596 
 102   0.0000       3.571881        97.1958 
 103   0.0000       3.572031        97.1999 
 104   0.0000       3.741177       101.8026 
 105   0.0000       3.877959       105.5246 
 106   0.0000       3.878304       105.5340 
 107   0.0000       3.878907       105.5504 
 108   0.0000       4.045548       110.0850 
 109   0.0000       4.045946       110.0958 
 110   0.0000       4.077772       110.9618 
 111   0.0000       4.134216       112.4977 
 112   0.0000       4.134296       112.4999 
 113   0.0000       4.213902       114.6661 
 114   0.0000       5.223911       142.1498 
 115   0.0000       5.406482       147.1179 
 116   0.0000       5.406831       147.1274 
 117   0.0000       6.898393       187.7148 
 118   0.0000       6.907449       187.9613 
 119   0.0000       6.907469       187.9618 
 120   0.0000       6.912085       188.0874 
 121   0.0000       6.912115       188.0882 
 122   0.0000       6.913709       188.1316 
 123   0.0000       6.920848       188.3258 
 124   0.0000       6.923688       188.4031 
 125   0.0000       6.923732       188.4043 
 126   0.0000       7.073904       192.4907 
 127   0.0000       7.083878       192.7621 
 128   0.0000       7.083968       192.7646 
 129   0.0000       7.197038       195.8414 
 130   0.0000       7.197256       195.8473 
 131   0.0000       7.247572       197.2165 
 132   0.0000       7.434206       202.2950 
 133   0.0000       7.434341       202.2987 
 134   0.0000       7.547412       205.3755 
 135   0.0000       7.695594       209.4078 
 136   0.0000       7.695770       209.4126 
 137   0.0000       7.777233       211.6293 
 138   0.0000       8.500764       231.3176 
 139   0.0000       8.501584       231.3399 
 140   0.0000       8.501639       231.3414 
 141   0.0000       8.572641       233.2734 
 142   0.0000       8.572713       233.2754 
 143   0.0000       8.606339       234.1904 
 144   0.0000       8.837713       240.4864 
 145   0.0000       8.837890       240.4912 
 146   0.0000       8.870383       241.3754 
 147   0.0000       8.875404       241.5120 
 148   0.0000       9.069485       246.7932 
 149   0.0000       9.069736       246.8001 
 150   0.0000       9.226578       251.0679 
 151   0.0000       9.382808       255.3192 
 152   0.0000       9.382848       255.3203 
 153   0.0000      22.851385       621.8178 
 154   0.0000      57.195559      1556.3703 
 155   0.0000      57.271207      1558.4288 
 156   0.0000      57.271388      1558.4337 

                 SPIN DOWN ORBITALS
  NO   OCC          E(Eh)            E(eV) 
   0   1.0000     -24.850514      -676.2169 
   1   1.0000     -24.850474      -676.2158 
   2   1.0000     -24.850440      -676.2149 
   3   1.0000     -10.527331      -286.4633 
   4   1.0000      -1.460705       -39.7478 
   5   1.0000      -1.375152       -37.4198 
   6   1.0000      -1.375069       -37.4175 
   7   1.0000      -0.820733       -22.3333 
   8   1.0000      -0.723648       -19.6914 
   9   1.0000      -0.723604       -19.6903 
  10   1.0000      -0.663317       -18.0498 
  11   1.0000      -0.596519       -16.2321 
  12   1.0000      -0.596488       -16.2313 
  13   1.0000      -0.564289       -15.3551 
  14   1.0000      -0.564234       -15.3536 
  15   1.0000      -0.544383       -14.8134 
  16   0.0000      -0.020500        -0.5578 
  17   0.0000       0.081799         2.2259 
  18   0.0000       0.107148         2.9157 
  19   0.0000       0.107153         2.9158 
  20   0.0000       0.130934         3.5629 
  21   0.0000       0.161273         4.3885 
  22   0.0000       0.161284         4.3888 
  23   0.0000       0.180885         4.9221 
  24   0.0000       0.180893         4.9223 
  25   0.0000       0.193518         5.2659 
  26   0.0000       0.240472         6.5436 
  27   0.0000       0.264297         7.1919 
  28   0.0000       0.265167         7.2156 
  29   0.0000       0.265227         7.2172 
  30   0.0000       0.330300         8.9879 
  31   0.0000       0.378956        10.3119 
  32   0.0000       0.383249        10.4287 
  33   0.0000       0.383324        10.4308 
  34   0.0000       0.391389        10.6502 
  35   0.0000       0.391422        10.6511 
  36   0.0000       0.417779        11.3683 
  37   0.0000       0.424523        11.5519 
  38   0.0000       0.424534        11.5522 
  39   0.0000       0.487671        13.2702 
  40   0.0000       0.487710        13.2713 
  41   0.0000       0.491877        13.3847 
  42   0.0000       0.594059        16.1652 
  43   0.0000       0.657683        17.8965 
  44   0.0000       0.657723        17.8976 
  45   0.0000       0.677418        18.4335 
  46   0.0000       0.677431        18.4338 
  47   0.0000       0.701419        19.0866 
  48   0.0000       0.701462        19.0877 
  49   0.0000       0.715173        19.4609 
  50   0.0000       0.747621        20.3438 
  51   0.0000       0.750919        20.4335 
  52   0.0000       0.786792        21.4097 
  53   0.0000       0.786852        21.4113 
  54   0.0000       0.871554        23.7162 
  55   0.0000       0.879975        23.9453 
  56   0.0000       0.880000        23.9460 
  57   0.0000       0.965695        26.2779 
  58   0.0000       0.988935        26.9103 
  59   0.0000       0.988956        26.9109 
  60   0.0000       1.065007        28.9803 
  61   0.0000       1.065052        28.9815 
  62   0.0000       1.085511        29.5382 
  63   0.0000       1.163410        31.6580 
  64   0.0000       1.163459        31.6593 
  65   0.0000       1.170563        31.8526 
  66   0.0000       1.249495        34.0005 
  67   0.0000       1.268090        34.5065 
  68   0.0000       1.268116        34.5072 
  69   0.0000       1.292990        35.1841 
  70   0.0000       1.332360        36.2554 
  71   0.0000       1.332456        36.2580 
  72   0.0000       1.467440        39.9311 
  73   0.0000       1.467471        39.9319 
  74   0.0000       1.752553        47.6894 
  75   0.0000       2.123942        57.7954 
  76   0.0000       2.139624        58.2221 
  77   0.0000       2.139655        58.2230 
  78   0.0000       2.187446        59.5234 
  79   0.0000       2.222293        60.4717 
  80   0.0000       2.222338        60.4729 
  81   0.0000       2.294373        62.4331 
  82   0.0000       2.308818        62.8261 
  83   0.0000       2.349287        63.9274 
  84   0.0000       2.349322        63.9283 
  85   0.0000       2.529147        68.8216 
  86   0.0000       2.529237        68.8240 
  87   0.0000       2.616921        71.2100 
  88   0.0000       2.675492        72.8039 
  89   0.0000       2.675648        72.8081 
  90   0.0000       2.820822        76.7585 
  91   0.0000       2.964198        80.6599 
  92   0.0000       2.964248        80.6613 
  93   0.0000       3.192520        86.8729 
  94   0.0000       3.229481        87.8787 
  95   0.0000       3.229533        87.8801 
  96   0.0000       3.250018        88.4375 
  97   0.0000       3.343065        90.9694 
  98   0.0000       3.343088        90.9700 
  99   0.0000       3.386884        92.1618 
 100   0.0000       3.386902        92.1623 
 101   0.0000       3.406444        92.6940 
 102   0.0000       3.606792        98.1458 
 103   0.0000       3.606946        98.1500 
 104   0.0000       3.770840       102.6098 
 105   0.0000       3.887949       105.7965 
 106   0.0000       3.888101       105.8006 
 107   0.0000       3.888388       105.8084 
 108   0.0000       4.063444       110.5719 
 109   0.0000       4.063833       110.5825 
 110   0.0000       4.089009       111.2676 
 111   0.0000       4.138989       112.6276 
 112   0.0000       4.139065       112.6297 
 113   0.0000       4.224911       114.9657 
 114   0.0000       5.237140       142.5098 
 115   0.0000       5.417965       147.4303 
 116   0.0000       5.418394       147.4420 
 117   0.0000       6.900272       187.7659 
 118   0.0000       6.911756       188.0784 
 119   0.0000       6.911776       188.0790 
 120   0.0000       6.917860       188.2445 
 121   0.0000       6.917886       188.2453 
 122   0.0000       6.919671       188.2938 
 123   0.0000       6.926241       188.4726 
 124   0.0000       6.927436       188.5051 
 125   0.0000       6.927479       188.5063 
 126   0.0000       7.076910       192.5725 
 127   0.0000       7.090178       192.9335 
 128   0.0000       7.090267       192.9360 
 129   0.0000       7.201272       195.9566 
 130   0.0000       7.201492       195.9626 
 131   0.0000       7.255551       197.4336 
 132   0.0000       7.443341       202.5436 
 133   0.0000       7.443472       202.5472 
 134   0.0000       7.557082       205.6387 
 135   0.0000       7.701894       209.5792 
 136   0.0000       7.702056       209.5836 
 137   0.0000       7.785732       211.8605 
 138   0.0000       8.506656       231.4779 
 139   0.0000       8.510542       231.5836 
 140   0.0000       8.510596       231.5851 
 141   0.0000       8.582500       233.5417 
 142   0.0000       8.582571       233.5436 
 143   0.0000       8.613633       234.3889 
 144   0.0000       8.846491       240.7252 
 145   0.0000       8.846669       240.7301 
 146   0.0000       8.877675       241.5738 
 147   0.0000       8.886738       241.8204 
 148   0.0000       9.074084       246.9184 
 149   0.0000       9.074335       246.9252 
 150   0.0000       9.233411       251.2539 
 151   0.0000       9.389317       255.4963 
 152   0.0000       9.389359       255.4974 
 153   0.0000      22.874136       622.4369 
 154   0.0000      57.198553      1556.4518 
 155   0.0000      57.274175      1558.5095 
 156   0.0000      57.274358      1558.5145 

                    ********************************
                    * MULLIKEN POPULATION ANALYSIS *
                    ********************************

--------------------------------------------
MULLIKEN ATOMIC CHARGES AND SPIN POPULATIONS
--------------------------------------------
   0 C :    0.532284    0.814793
   1 F :   -0.177493    0.061729
   2 F :   -0.177425    0.061716
   3 F :   -0.177366    0.061762
Sum of atomic charges         :    0.0000000
Sum of atomic spin populations:    1.0000000

-----------------------------------------------------
MULLIKEN REDUCED ORBITAL CHARGES AND SPIN POPULATIONS
-----------------------------------------------------
CHARGE
  0 C s       :     3.177631  s :     3.177631
      pz      :     0.904518  p :     1.942844
      px      :     0.519131
      py      :     0.519194
      dz2     :     0.048100  d :     0.307230
      dxz     :     0.050783
      dyz     :     0.050929
      dx2y2   :     0.078678
      dxy     :     0.078740
      f0      :     0.002475  f :     0.040012
      f+1     :     0.004700
      f-1     :     0.004562
      f+2     :     0.005566
      f-2     :     0.005509
      f+3     :     0.011601
      f-3     :     0.005598
  1 F s       :     3.954959  s :     3.954959
      pz      :     1.831182  p :     5.210556
      px      :     1.914202
      py      :     1.465172
      dz2     :     0.000610  d :     0.011179
      dxz     :     0.000327
      dyz     :     0.006603
      dx2y2   :     0.005191
      dxy     :    -0.001552
      f0      :     0.000079  f :     0.000799
      f+1     :     0.000007
      f-1     :     0.000157
      f+2     :     0.000163
      f-2     :     0.000034
      f+3     :     0.000146
      f-3     :     0.000213
  2 F s       :     3.954946  s :     3.954946
      pz      :     1.826037  p :     5.210495
      px      :     1.547401
      py      :     1.837058
      dz2     :     0.000593  d :     0.011185
      dxz     :     0.005618
      dyz     :     0.001457
      dx2y2   :     0.001130
      dxy     :     0.002386
      f0      :     0.000079  f :     0.000798
      f+1     :     0.000131
      f-1     :     0.000033
      f+2     :     0.000090
      f-2     :     0.000114
      f+3     :     0.000143
      f-3     :     0.000208
  3 F s       :     3.954977  s :     3.954977
      pz      :     1.830569  p :     5.210408
      px      :     1.610023
      py      :     1.769816
      dz2     :     0.000607  d :     0.011182
      dxz     :     0.004592
      dyz     :     0.002358
      dx2y2   :    -0.000905
      dxy     :     0.004530
      f0      :     0.000079  f :     0.000799
      f+1     :     0.000109
      f-1     :     0.000055
      f+2     :     0.000047
      f-2     :     0.000151
      f+3     :     0.000145
      f-3     :     0.000213

SPIN
  0 C s       :     0.249552  s :     0.249552
      pz      :     0.531121  p :     0.552142
      px      :     0.010519
      py      :     0.010502
      dz2     :     0.018245  d :     0.013874
      dxz     :    -0.001567
      dyz     :    -0.001599
      dx2y2   :    -0.000600
      dxy     :    -0.000606
      f0      :    -0.000303  f :    -0.000774
      f+1     :    -0.000484
      f-1     :    -0.000484
      f+2     :    -0.000105
      f-2     :    -0.000104
      f+3     :     0.000103
      f-3     :     0.000603
  1 F s       :     0.003286  s :     0.003286
      pz      :     0.059873  p :     0.056529
      px      :    -0.001087
      py      :    -0.002256
      dz2     :     0.000229  d :     0.001873
      dxz     :     0.000008
      dyz     :     0.000928
      dx2y2   :     0.000701
      dxy     :     0.000007
      f0      :    -0.000003  f :     0.000041
      f+1     :    -0.000001
      f-1     :     0.000027
      f+2     :     0.000006
      f-2     :     0.000002
      f+3     :     0.000002
      f-3     :     0.000008
  2 F s       :     0.003278  s :     0.003278
      pz      :     0.060269  p :     0.056528
      px      :    -0.002363
      py      :    -0.001378
      dz2     :     0.000221  d :     0.001869
      dxz     :     0.000777
      dyz     :     0.000170
      dx2y2   :     0.000286
      dxy     :     0.000415
      f0      :    -0.000003  f :     0.000041
      f+1     :     0.000023
      f-1     :     0.000005
      f+2     :     0.000003
      f-2     :     0.000004
      f+3     :     0.000002
      f-3     :     0.000008
  3 F s       :     0.003306  s :     0.003306
      pz      :     0.059931  p :     0.056543
      px      :    -0.001779
      py      :    -0.001609
      dz2     :     0.000229  d :     0.001873
      dxz     :     0.000629
      dyz     :     0.000307
      dx2y2   :     0.000075
      dxy     :     0.000633
      f0      :    -0.000003  f :     0.000041
      f+1     :     0.000018
      f-1     :     0.000008
      f+2     :     0.000002
      f-2     :     0.000005
      f+3     :     0.000002
      f-3     :     0.000007


                     *******************************
                     * LOEWDIN POPULATION ANALYSIS *
                     *******************************

-------------------------------------------
LOEWDIN ATOMIC CHARGES AND SPIN POPULATIONS
-------------------------------------------
   0 C :   -0.410475    0.614449
   1 F :    0.136770    0.128500
   2 F :    0.136804    0.128521
   3 F :    0.136900    0.128530

----------------------------------------------------
LOEWDIN REDUCED ORBITAL CHARGES AND SPIN POPULATIONS
----------------------------------------------------
CHARGE
  0 C s       :     2.679003  s :     2.679003
      pz      :     0.815584  p :     2.211386
      px      :     0.697934
      py      :     0.697868
      dz2     :     0.173745  d :     1.260593
      dxz     :     0.194263
      dyz     :     0.193048
      dx2y2   :     0.350041
      dxy     :     0.349495
      f0      :     0.015545  f :     0.259493
      f+1     :     0.024293
      f-1     :     0.023801
      f+2     :     0.039913
      f-2     :     0.039697
      f+3     :     0.066181
      f-3     :     0.050062
  1 F s       :     3.564165  s :     3.564165
      pz      :     1.743011  p :     5.096870
      px      :     1.782490
      py      :     1.571368
      dz2     :     0.028774  d :     0.200277
      dxz     :     0.005162
      dyz     :     0.062493
      dx2y2   :     0.045300
      dxy     :     0.058549
      f0      :     0.000188  f :     0.001918
      f+1     :     0.000020
      f-1     :     0.000397
      f+2     :     0.000438
      f-2     :     0.000073
      f+3     :     0.000371
      f-3     :     0.000431
  2 F s       :     3.564178  s :     3.564178
      pz      :     1.740779  p :     5.096854
      px      :     1.609869
      py      :     1.746205
      dz2     :     0.029529  d :     0.200246
      dxz     :     0.052470
      dyz     :     0.015252
      dx2y2   :     0.052789
      dxy     :     0.050206
      f0      :     0.000185  f :     0.001918
      f+1     :     0.000338
      f-1     :     0.000086
      f+2     :     0.000228
      f-2     :     0.000295
      f+3     :     0.000364
      f-3     :     0.000421
  3 F s       :     3.564136  s :     3.564136
      pz      :     1.742745  p :     5.096793
      px      :     1.639508
      py      :     1.714541
      dz2     :     0.028859  d :     0.200252
      dxz     :     0.044174
      dyz     :     0.023492
      dx2y2   :     0.057290
      dxy     :     0.046437
      f0      :     0.000188  f :     0.001918
      f+1     :     0.000276
      f-1     :     0.000141
      f+2     :     0.000110
      f-2     :     0.000403
      f+3     :     0.000369
      f-3     :     0.000431

SPIN
  0 C s       :     0.127293  s :     0.127293
      pz      :     0.420462  p :     0.431785
      px      :     0.005670
      py      :     0.005653
      dz2     :     0.056129  d :     0.047344
      dxz     :    -0.003762
      dyz     :    -0.003786
      dx2y2   :    -0.000616
      dxy     :    -0.000621
      f0      :    -0.000313  f :     0.008027
      f+1     :    -0.000258
      f-1     :    -0.000258
      f+2     :    -0.000203
      f-2     :    -0.000202
      f+3     :     0.000607
      f-3     :     0.008654
  1 F s       :     0.015182  s :     0.015182
      pz      :     0.070864  p :     0.076522
      px      :    -0.000600
      py      :     0.006259
      dz2     :     0.004914  d :     0.036373
      dxz     :     0.000157
      dyz     :     0.029720
      dx2y2   :     0.001489
      dxy     :     0.000094
      f0      :     0.000041  f :     0.000422
      f+1     :     0.000002
      f-1     :     0.000193
      f+2     :     0.000162
      f-2     :     0.000007
      f+3     :     0.000005
      f-3     :     0.000013
  2 F s       :     0.015186  s :     0.015186
      pz      :     0.071554  p :     0.076533
      px      :     0.004540
      py      :     0.000439
      dz2     :     0.005636  d :     0.036379
      dxz     :     0.024164
      dyz     :     0.005163
      dx2y2   :     0.000595
      dxy     :     0.000822
      f0      :     0.000033  f :     0.000422
      f+1     :     0.000174
      f-1     :     0.000038
      f+2     :     0.000066
      f-2     :     0.000093
      f+3     :     0.000005
      f-3     :     0.000014
  3 F s       :     0.015187  s :     0.015187
      pz      :     0.070965  p :     0.076533
      px      :     0.004173
      py      :     0.001394
      dz2     :     0.005000  d :     0.036388
      dxz     :     0.020324
      dyz     :     0.009500
      dx2y2   :     0.000245
      dxy     :     0.001319
      f0      :     0.000040  f :     0.000422
      f+1     :     0.000133
      f-1     :     0.000064
      f+2     :     0.000022
      f-2     :     0.000145
      f+3     :     0.000005
      f-3     :     0.000013


                      *****************************
                      * MAYER POPULATION ANALYSIS *
                      *****************************

  NA   - Mulliken gross atomic population
  ZA   - Total nuclear charge
  QA   - Mulliken gross atomic charge
  VA   - Mayer's total valence
  BVA  - Mayer's bonded valence
  FA   - Mayer's free valence

  ATOM       NA         ZA         QA         VA         BVA        FA
  0 C      5.4677     6.0000     0.5323     3.8133     3.1534     0.6600
  1 F      9.1775     9.0000    -0.1775     1.0775     1.0737     0.0037
  2 F      9.1774     9.0000    -0.1774     1.0776     1.0739     0.0037
  3 F      9.1774     9.0000    -0.1774     1.0776     1.0739     0.0037

  Mayer bond orders larger than 0.100000
B(  0-C ,  1-F ) :   1.0510 B(  0-C ,  2-F ) :   1.0512 B(  0-C ,  3-F ) :   1.0512 


-------
TIMINGS
-------

Total SCF time: 0 days 0 hours 0 min 13 sec 

Total time                  ....      13.098 sec
Sum of individual times     ....      11.902 sec  ( 90.9%)

Fock matrix formation       ....       9.957 sec  ( 76.0%)
  Split-RI-J                ....       1.573 sec  ( 15.8% of F)
  Chain of spheres X        ....       3.074 sec  ( 30.9% of F)
  XC integration            ....       2.110 sec  ( 21.2% of F)
    Basis function eval.    ....       0.127 sec  (  6.0% of XC)
    Density eval.           ....       0.167 sec  (  7.9% of XC)
    XC-Functional eval.     ....       0.071 sec  (  3.4% of XC)
    XC-Potential eval.      ....       0.325 sec  ( 15.4% of XC)
Diagonalization             ....       0.386 sec  (  2.9%)
Density matrix formation    ....       0.015 sec  (  0.1%)
Population analysis         ....       0.133 sec  (  1.0%)
Initial guess               ....       0.274 sec  (  2.1%)
Orbital Transformation      ....       0.000 sec  (  0.0%)
Orbital Orthonormalization  ....       0.000 sec  (  0.0%)
DIIS solution               ....       0.506 sec  (  3.9%)
Grid generation             ....       0.632 sec  (  4.8%)

Maximum memory used throughout the entire SCF-calculation: 63.2 MB


-------------------------------------------------------------------------------
                          DFT DISPERSION CORRECTION                            
                                                                               
                              DFTD3 V3.1  Rev 1                                
                              USING zero damping                               
-------------------------------------------------------------------------------
The omegaB97X-D3 functional is recognized. Fit by Chai et al.
Active option DFTDOPT                   ...         3   

molecular C6(AA) [au] = 165.758887 


            DFT-D V3
 parameters
 s6 scaling factor         :     1.0000 
 rs6 scaling factor        :     1.2810 
 s8 scaling factor         :     1.0000 
 rs8 scaling factor        :     1.0940 
 Damping factor alpha6     :    14.0000 
 Damping factor alpha8     :    16.0000 
 ad hoc parameters k1-k3   :    16.0000     1.3333    -4.0000 

 Edisp/kcal,au: -0.052102846779  -0.000083031163 
 E6   /kcal   :  -0.006668068 
 E8   /kcal   :  -0.045434778 
 % E8         :  87.202103492 

-------------------------   ----------------
Dispersion correction           -0.000083031
-------------------------   ----------------


-------------------------   --------------------
FINAL SINGLE POINT ENERGY      -337.632745323418
-------------------------   --------------------



           ************************************************************
           *        Program running with 18 parallel MPI-processes    *
           *              working on a common directory               *
           ************************************************************
------------------------------------------------------------------------------
                         ORCA SCF GRADIENT CALCULATION
------------------------------------------------------------------------------

 ... reading COSX grid (gridx3)
Gradient of the Kohn-Sham DFT energy:
Kohn-Sham wavefunction type      ... UKS
Hartree-Fock exchange scaling    ...    0.196
Number of operators              ...    2
Number of atoms                  ...    4
Basis set dimensions             ...  157
Integral neglect threshold       ... 2.5e-11
Integral primitive cutoff        ... 2.5e-12
SHARK Integral package           ... ON

Nuc. rep. gradient       (SHARK) ... done (  0.0 sec)
HCore & Overlap gradient (SHARK) ... done (  0.0 sec)
RI-J gradient            (SHARK) ... done (  0.3 sec)
COSX-gradient                    ... done (  0.4 sec)
Exchange-correlation gradient    ... done
Dispersion correction            ... done

------------------
CARTESIAN GRADIENT
------------------

   1   C   :    0.000052787    0.000039246   -0.000071102
   2   F   :   -0.000225076    0.000017281   -0.000075480
   3   F   :    0.000065049    0.000242316    0.000130995
   4   F   :    0.000119965   -0.000123796   -0.000258518

Difference to translation invariance:
           :    0.0000127258    0.0001750476   -0.0002741037

Difference to rotation invariance:
           :   -0.0000401362    0.0008312563   -0.0015182829

Norm of the cartesian gradient     ...    0.0004926399
RMS gradient                       ...    0.0001422129
MAX gradient                       ...    0.0002585177

-------
TIMINGS
-------

Total SCF gradient time            ...        1.350 sec

One electron gradient       ....       0.013 sec  (  1.0%)
RI-J Coulomb gradient       ....       0.333 sec  ( 24.7%)
COSX gradient               ....       0.422 sec  ( 31.2%)
XC gradient                 ....       0.186 sec  ( 13.8%)

Maximum memory used throughout the entire SCFGRAD-calculation: 37.2 MB
------------------------------------------------------------------------------
                         ORCA GEOMETRY RELAXATION STEP
------------------------------------------------------------------------------

Reading the OPT-File                    .... done
Getting information on internals        .... done
Copying old internal coords+grads       .... done
Making the new internal coordinates     .... (new redundants).... done
Validating the new internal coordinates .... (new redundants).... done
Calculating the B-matrix                .... done
Calculating the G,G- and P matrices     .... done
Transforming gradient to internals      .... done
Projecting the internal gradient        .... done
Number of atoms                         ....   4
Number of internal coordinates          ....   7
Current Energy                          ....  -337.632745323 Eh
Current gradient norm                   ....     0.000492640 Eh/bohr
Maximum allowed component of the step   ....  0.300
Current trust radius                    ....  0.300
Evaluating the initial hessian          ....  (Almloef) done
Projecting the Hessian                  .... done
Forming the augmented Hessian           .... done
Diagonalizing the augmented Hessian     .... done
Last element of RFO vector              ....  0.999999997
Lowest eigenvalues of augmented Hessian:
 -0.000000001  0.130686187  0.440040931  0.440054287  0.684594476
Length of the computed step             ....  0.000081137
The final length of the internal step   ....  0.000081137
Converting the step to cartesian space:
 Initial RMS(Int)=    0.0000306667
Transforming coordinates:
 Iter   0:  RMS(Cart)=    0.0000210851 RMS(Int)=    0.0000306668
 Iter   1:  RMS(Cart)=    0.0000000004 RMS(Int)=    0.0000000006
done
Storing new coordinates                 .... done

                                .--------------------.
          ----------------------|Geometry convergence|-------------------------
          Item                value                   Tolerance       Converged
          ---------------------------------------------------------------------
          RMS gradient        0.0000077071            0.0001000000      YES
          MAX gradient        0.0000135429            0.0003000000      YES
          RMS step            0.0000306667            0.0020000000      YES
          MAX step            0.0000657219            0.0040000000      YES
          ........................................................
          Max(Bonds)      0.0000      Max(Angles)    0.00
          Max(Dihed)        0.00      Max(Improp)    0.00
          ---------------------------------------------------------------------

                    ***********************HURRAY********************
                    ***        THE OPTIMIZATION HAS CONVERGED     ***
                    *************************************************


    ---------------------------------------------------------------------------
                         Redundant Internal Coordinates

                          --- Optimized Parameters ---  
                            (Angstroem and degrees)

        Definition                    OldVal   dE/dq     Step     FinalVal
    ----------------------------------------------------------------------------
     1. B(F   1,C   0)                1.3151  0.000006 -0.0000    1.3151   
     2. B(F   2,C   0)                1.3151  0.000009 -0.0000    1.3151   
     3. B(F   3,C   0)                1.3150  0.000014 -0.0000    1.3150   
     4. A(F   1,C   0,F   3)          111.39  0.000002   -0.00    111.38   
     5. A(F   2,C   0,F   3)          111.41  0.000003   -0.00    111.41   
     6. A(F   1,C   0,F   2)          111.37  0.000004   -0.00    111.37   
     7. I(F   1,F   3,F   2,C   0)    -49.69  0.000009   -0.00    -49.69   
    ----------------------------------------------------------------------------
                 *******************************************************
                 *** FINAL ENERGY EVALUATION AT THE STATIONARY POINT ***
                 ***               (AFTER    1 CYCLES)               ***
                 *******************************************************
---------------------------------
CARTESIAN COORDINATES (ANGSTROEM)
---------------------------------
  C     -0.005784    0.003655    0.322182
  F      0.105661   -1.248309   -0.064720
  F     -1.138468    0.532458   -0.086370
  F      1.026237    0.719562   -0.067319

----------------------------
CARTESIAN COORDINATES (A.U.)
----------------------------
  NO LB      ZA    FRAG     MASS         X           Y           Z
   0 C     6.0000    0    12.011   -0.010931    0.006907    0.608836
   1 F     9.0000    0    18.998    0.199669   -2.358963   -0.122303
   2 F     9.0000    0    18.998   -2.151392    1.006199   -0.163216
   3 F     9.0000    0    18.998    1.939306    1.359775   -0.127214

--------------------------------
INTERNAL COORDINATES (ANGSTROEM)
--------------------------------
 C      0   0   0     0.000000000000     0.00000000     0.00000000
 F      1   0   0     1.315114950459     0.00000000     0.00000000
 F      1   2   0     1.315111633851   111.36947036     0.00000000
 F      1   2   3     1.315029242549   111.38415716   234.95989961

---------------------------
INTERNAL COORDINATES (A.U.)
---------------------------
 C      0   0   0     0.000000000000     0.00000000     0.00000000
 F      1   0   0     2.485207090993     0.00000000     0.00000000
 F      1   2   0     2.485200823511   111.36947036     0.00000000
 F      1   2   3     2.485045126516   111.38415716   234.95989961

---------------------
BASIS SET INFORMATION
---------------------
There are 2 groups of distinct atoms

 Group   1 Type C   : 12s6p3d1f contracted to 6s3p3d1f pattern {621111/411/111/1}
 Group   2 Type F   : 12s7p3d1f contracted to 6s4p3d1f pattern {621111/4111/111/1}

Atom   0C    basis set group =>   1
Atom   1F    basis set group =>   2
Atom   2F    basis set group =>   2
Atom   3F    basis set group =>   2
---------------------------------
AUXILIARY/J BASIS SET INFORMATION
---------------------------------
There are 2 groups of distinct atoms

 Group   1 Type C   : 12s5p4d2f1g contracted to 6s4p3d1f1g pattern {711111/2111/211/2/1}
 Group   2 Type F   : 12s5p4d2f1g contracted to 6s4p3d1f1g pattern {711111/2111/211/2/1}

Atom   0C    basis set group =>   1
Atom   1F    basis set group =>   2
Atom   2F    basis set group =>   2
Atom   3F    basis set group =>   2


           ************************************************************
           *        Program running with 18 parallel MPI-processes    *
           *              working on a common directory               *
           ************************************************************
------------------------------------------------------------------------------
                           ORCA GTO INTEGRAL CALCULATION
                           -- RI-GTO INTEGRALS CHOSEN --
------------------------------------------------------------------------------
------------------------------------------------------------------------------
                   ___                                                        
                  /   \      - P O W E R E D   B Y -                         
                 /     \                                                     
                 |  |  |   _    _      __       _____    __    __             
                 |  |  |  | |  | |    /  \     |  _  \  |  |  /  |          
                  \  \/   | |  | |   /    \    | | | |  |  | /  /          
                 / \  \   | |__| |  /  /\  \   | |_| |  |  |/  /          
                |  |  |   |  __  | /  /__\  \  |    /   |      \           
                |  |  |   | |  | | |   __   |  |    \   |  |\   \          
                \     /   | |  | | |  |  |  |  | |\  \  |  | \   \       
                 \___/    |_|  |_| |__|  |__|  |_| \__\ |__|  \__/        
                                                                              
                      - O R C A' S   B I G   F R I E N D -                    
                                      &                                       
                       - I N T E G R A L  F E E D E R -                       
                                                                              
 v1 FN, 2020, v2 2021                                                         
------------------------------------------------------------------------------


Reading SHARK input file /beegfs/scratch/ispackman/PFAS_EPR_calcs/benchmark/JChemEd_CF3_radical/CF3_opt_IN-PROGRESS/CF3_opt.SHARKINP.tmp ... ok
----------------------
SHARK INTEGRAL PACKAGE
----------------------

Number of atoms                             ...      4
Number of basis functions                   ...    157
Number of shells                            ...     55
Maximum angular momentum                    ...      3
Integral batch strategy                     ... SHARK/LIBINT Hybrid
RI-J (if used) integral strategy            ... SPLIT-RIJ (Revised 2003 algorithm where possible)
Printlevel                                  ...      1
Contraction scheme used                     ... SEGMENTED contraction
Coulomb Range Separation                    ... NOT USED
Exchange Range Separation                   ... Long Range
   Mu parameter                             ...  0.250000
   Scaling (regular/separated)              ...  0.195728  0.804272
Finite Nucleus Model                        ... NOT USED
Auxiliary Coulomb fitting basis             ... AVAILABLE
   # of basis functions in Aux-J            ...    196
   # of shells in Aux-J                     ...     60
   Maximum angular momentum in Aux-J        ...      4
Auxiliary J/K fitting basis                 ... NOT available
Auxiliary Correlation fitting basis         ... NOT available
Auxiliary 'external' fitting basis          ... NOT available
Integral threshold                          ...     2.500000e-11
Primitive cut-off                           ...     2.500000e-12
Primitive pair pre-selection threshold      ...     2.500000e-12

Calculating pre-screening integrals         ... done (  0.0 sec) Dimension = 55
Organizing shell pair data                  ... done (  0.0 sec)
Shell pair information
Total number of shell pairs                 ...      1540
Shell pairs after pre-screening             ...      1504
Total number of primitive shell pairs       ...      4274
Primitive shell pairs kept                  ...      3533
          la=0 lb=0:    282 shell pairs
          la=1 lb=0:    354 shell pairs
          la=1 lb=1:    120 shell pairs
          la=2 lb=0:    276 shell pairs
          la=2 lb=1:    180 shell pairs
          la=2 lb=2:     78 shell pairs
          la=3 lb=0:     96 shell pairs
          la=3 lb=1:     60 shell pairs
          la=3 lb=2:     48 shell pairs
          la=3 lb=3:     10 shell pairs

Calculating one electron integrals          ... done (  0.0 sec)
Calculating RI/J V-Matrix + Cholesky decomp.... done (  0.0 sec)
Calculating Nuclear repulsion               ... done (  0.0 sec) ENN=    124.373977011313 Eh

SHARK setup successfully completed in   0.3 seconds

Maximum memory used throughout the entire GTOINT-calculation: 15.2 MB


           ************************************************************
           *        Program running with 18 parallel MPI-processes    *
           *              working on a common directory               *
           ************************************************************
-------------------------------------------------------------------------------
                                 ORCA SCF
-------------------------------------------------------------------------------

------------
SCF SETTINGS
------------
Hamiltonian:
 Density Functional     Method          .... DFT(GTOs)
 Exchange Functional    Exchange        .... WB97X-D3
 Correlation Functional Correlation     .... WB97X-D3
 Gradients option       PostSCFGGA      .... off
 Hybrid DFT is turned on
   Fraction HF Exchange ScalHFX         ....  0.195728
   Scaling of DF-GGA-X  ScalDFX         ....  0.000000
   Scaling of DF-GGA-C  ScalDFC         ....  1.000000
   Scaling of DF-LDA-C  ScalLDAC        ....  1.000000
   Perturbative correction              ....  0.000000
   Density functional embedding theory  .... OFF
 Long-range corrected/Screened/Range-Separated Hybrid DFT is turned on
   Amount of maximum screened exact exchange              ....  0.804272
   Range separation parameter mu (erf(mu*r12)/r12)        ....  0.250000
 RI-approximation to the Coulomb term is turned on
   Number of AuxJ basis functions       .... 196
   RIJ-COSX (HFX calculated with COS-X)).... on


General Settings:
 Integral files         IntName         .... /beegfs/scratch/ispackman/PFAS_EPR_calcs/benchmark/JChemEd_CF3_radical/CF3_opt_IN-PROGRESS/CF3_opt
 Hartree-Fock type      HFTyp           .... UHF
 Total Charge           Charge          ....    0
 Multiplicity           Mult            ....    2
 Number of Electrons    NEL             ....   33
 Basis Dimension        Dim             ....  157
 Nuclear Repulsion      ENuc            ....    124.3739770113 Eh

Convergence Acceleration:
 DIIS                   CNVDIIS         .... on
   Start iteration      DIISMaxIt       ....    12
   Startup error        DIISStart       ....  0.200000
   # of expansion vecs  DIISMaxEq       ....     5
   Bias factor          DIISBfac        ....   1.050
   Max. coefficient     DIISMaxC        ....  10.000
 Trust-Rad. Augm. Hess. CNVTRAH         .... auto
   Auto Start mean grad. ratio tolernc. ....  1.125000
   Auto Start start iteration           ....     1
   Auto Start num. interpolation iter.  ....    10
   Max. Number of Micro iterations      ....    16
   Max. Number of Macro iterations      .... Maxiter - #DIIS iter
   Number of Davidson start vectors     ....     2
   Converg. threshold I  (grad. norm)   ....   1.000e-05
   Converg. threshold II (energy diff.) ....   1.000e-08
   Grad. Scal. Fac. for Micro threshold ....   0.100
   Minimum threshold for Micro iter.    ....   0.010
   NR start threshold (gradient norm)   ....   0.001
   Initial trust radius                 ....   0.400
   Minimum AH scaling param. (alpha)    ....   1.000
   Maximum AH scaling param. (alpha)    .... 1000.000
   Orbital update algorithm             .... Taylor
   White noise on init. David. guess    .... on
   Maximum white noise                  ....   0.010
   Quad. conv. algorithm                .... NR
 SOSCF                  CNVSOSCF        .... off
 Level Shifting         CNVShift        .... on
   Level shift para.    LevelShift      ....    0.2500
   Turn off err/grad.   ShiftErr        ....    0.0010
 Zerner damping         CNVZerner       .... off
[...]
  0 C      5.4677     6.0000     0.5323     3.8133     3.1534     0.6600
  1 F      9.1775     9.0000    -0.1775     1.0774     1.0737     0.0037
  2 F      9.1774     9.0000    -0.1774     1.0776     1.0739     0.0037
  3 F      9.1774     9.0000    -0.1774     1.0776     1.0739     0.0037

  Mayer bond orders larger than 0.100000
B(  0-C ,  1-F ) :   1.0510 B(  0-C ,  2-F ) :   1.0512 B(  0-C ,  3-F ) :   1.0512 


-------
TIMINGS
-------

Total SCF time: 0 days 0 hours 0 min 3 sec 

Total time                  ....       3.407 sec
Sum of individual times     ....       2.733 sec  ( 80.2%)

Fock matrix formation       ....       1.886 sec  ( 55.3%)
  Split-RI-J                ....       0.322 sec  ( 17.1% of F)
  Chain of spheres X        ....       0.873 sec  ( 46.3% of F)
  XC integration            ....       0.286 sec  ( 15.2% of F)
    Basis function eval.    ....       0.018 sec  (  6.3% of XC)
    Density eval.           ....       0.024 sec  (  8.3% of XC)
    XC-Functional eval.     ....       0.010 sec  (  3.5% of XC)
    XC-Potential eval.      ....       0.035 sec  ( 12.1% of XC)
Diagonalization             ....       0.046 sec  (  1.4%)
Density matrix formation    ....       0.006 sec  (  0.2%)
Population analysis         ....       0.187 sec  (  5.5%)
Initial guess               ....       0.022 sec  (  0.6%)
Orbital Transformation      ....       0.000 sec  (  0.0%)
Orbital Orthonormalization  ....       0.011 sec  (  0.3%)
DIIS solution               ....       0.018 sec  (  0.5%)
Grid generation             ....       0.569 sec  ( 16.7%)

Maximum memory used throughout the entire SCF-calculation: 63.3 MB


-------------------------------------------------------------------------------
                          DFT DISPERSION CORRECTION                            
                                                                               
                              DFTD3 V3.1  Rev 1                                
                              USING zero damping                               
-------------------------------------------------------------------------------
The omegaB97X-D3 functional is recognized. Fit by Chai et al.
Active option DFTDOPT                   ...         3   

molecular C6(AA) [au] = 165.758852 


            DFT-D V3
 parameters
 s6 scaling factor         :     1.0000 
 rs6 scaling factor        :     1.2810 
 s8 scaling factor         :     1.0000 
 rs8 scaling factor        :     1.0940 
 Damping factor alpha6     :    14.0000 
 Damping factor alpha8     :    16.0000 
 ad hoc parameters k1-k3   :    16.0000     1.3333    -4.0000 

 Edisp/kcal,au: -0.052097398268  -0.000083022480 
 E6   /kcal   :  -0.006667354 
 E8   /kcal   :  -0.045430045 
 % E8         :  87.202137031 

-------------------------   ----------------
Dispersion correction           -0.000083022
-------------------------   ----------------


-------------------------   --------------------
FINAL SINGLE POINT ENERGY      -337.632745163027
-------------------------   --------------------

                                *** OPTIMIZATION RUN DONE ***

                            ***************************************
                            *     ORCA property calculations      *
                            ***************************************

                                    ---------------------
                                    Active property flags
                                    ---------------------
   (+) Dipole Moment


------------------------------------------------------------------------------
                       ORCA ELECTRIC PROPERTIES CALCULATION
------------------------------------------------------------------------------

Dipole Moment Calculation                       ... on
Quadrupole Moment Calculation                   ... off
Polarizability Calculation                      ... off
GBWName                                         ... /beegfs/scratch/ispackman/PFAS_EPR_calcs/benchmark/JChemEd_CF3_radical/CF3_opt_IN-PROGRESS/CF3_opt.gbw
Electron density                                ... /beegfs/scratch/ispackman/PFAS_EPR_calcs/benchmark/JChemEd_CF3_radical/CF3_opt_IN-PROGRESS/CF3_opt.scfp
The origin for moment calculation is the CENTER OF MASS  = (-0.005321,  0.003132 -0.007657)

-------------
DIPOLE MOMENT
-------------
                                X             Y             Z
Electronic contribution:      0.00096      -0.00024      -0.08557
Nuclear contribution   :     -0.00174       0.00117       0.19110
                        -----------------------------------------
Total Dipole Moment    :     -0.00078       0.00093       0.10553
                        -----------------------------------------
Magnitude (a.u.)       :      0.10554
Magnitude (Debye)      :      0.26826



--------------------
Rotational spectrum 
--------------------
 
Rotational constants in cm-1:     0.363507     0.363342     0.187985 
Rotational constants in MHz : 10897.658769 10892.717084  5635.656263 

 Dipole components along the rotational axes: 
x,y,z [a.u.] :    -0.000275    -0.000277     0.105540 
x,y,z [Debye]:    -0.000698    -0.000705     0.268261 

 


           ************************************************************
           *        Program running with 18 parallel MPI-processes    *
           *              working on a common directory               *
           ************************************************************

-------------------------------------------------------------------------------
                               ORCA SCF HESSIAN
-------------------------------------------------------------------------------

                   --------- SHARK INITIALIZATION DONE ---------

Hessian of the Kohn-Sham DFT energy:
Kohn-Sham wavefunction type                      ... UKS
Hartree-Fock exchange scaling                    ...    0.196
Number of operators                              ...    2
Number of atoms                                  ...    4
Basis set dimensions                             ...  157
Integral neglect threshold                       ... 2.5e-11
Integral primitive cutoff                        ... 2.5e-12

Setting up DFT Hessian calculations              ... 

HESS GRID
---------

General Integration Accuracy     IntAcc      ... 4.629
Radial Grid Type                 RadialGrid  ... OptM3 with GC (2021)
Angular Grid (max. ang.)         AngularGrid ... 5 (Lebedev-434)
Angular grid pruning method      GridPruning ... 4 (adaptive)
Weight generation scheme         WeightScheme... Becke
Basis function cutoff            BFCut       ... 1.0000e-11
Integration weight cutoff        WCut        ... 1.0000e-14
Angular grids for H and He will be reduced by one unit
Partially contracted basis set               ... off
Rotationally invariant grid construction     ... off

Total number of grid points                  ...    39954
Total number of batches                      ...      626
Average number of points per batch           ...       63
Average number of grid points per atom       ...     9988

Building densities                               ... done   (      0.0 sec)
Calculating rho(r) on the grid                   ... done   (      0.1 sec)
Building xc-kernel on the grid                   ... done   (      0.1 sec)
                                                     done   (      0.7 sec)

Nuclear repulsion Hessian  (SHARK)               ... done   (      0.0 sec)

----------------------------------------------
Forming right-hand sides of CP-SCF equations     ...
----------------------------------------------
One electron integral derivatives  (SHARK)       ... done   (      0.0 sec)
Transforming the overlap derivative matrices     ... done   (      0.0 sec)
Making the Q(x) pseudodensities                  ... done   (      0.0 sec)
Adding the E*S(x)*S(y) terms to the Hessian      ... done   (      0.0 sec)
Calculating energy weighted overlap derivatives  ... done   (      0.0 sec)
Two electron integral derivatives (SHARK-RI)     ... done   (      2.4 sec)
Exchange-correlation integral derivatives        ... done   (      2.2 sec)
tr(F(y)Q(x)) contribution to the Hessian         ... done   (      0.0 sec)
Response fock operator R(S(x)) (SHARK-RIJCOSX)   ... done   (      0.9 sec)
XC Response fock operator R(S(x))                ... done   (      0.5 sec)
tr(F(y)S(x)) contribution to the Hessian         ... done   (      0.0 sec)
Transforming and finalizing RHSs                 ... done   (      0.0 sec)

----------------------------------------------
Solving the CP-SCF equations (RIJCOSX)           ...
----------------------------------------------
     CP-SCF ITERATION   0:   1.6168e-01 (   0.4 sec   0/ 12 done)
     CP-SCF ITERATION   1:   4.0606e-02 (   0.5 sec   0/ 12 done)
     CP-SCF ITERATION   2:   1.2404e-02 (   0.4 sec   0/ 12 done)
     CP-SCF ITERATION   3:   3.1440e-03 (   0.5 sec   0/ 12 done)
     CP-SCF ITERATION   4:   9.8319e-04 (   0.5 sec   0/ 12 done)
     CP-SCF ITERATION   5:   3.9585e-04 (   0.5 sec   0/ 12 done)
     CP-SCF ITERATION   6:   1.0213e-04 (   0.5 sec  11/ 12 done)
     CP-SCF ITERATION   7:   2.2864e-05 (   0.3 sec  12/ 12 done)
                    *** THE CP-SCF HAS CONVERGED ***

                                                 ... done   (      3.9 sec)
Forming perturbed density Hessian contributions  ... done   (      0.0 sec)
2nd integral derivative contribs (SHARK-RI)      ... done   (      6.5 sec)
Exchange-correlation Hessian                     ... done   (      0.9 sec)
Dispersion correction in the Hessian             ... done   (      0.1 sec)
Dipole derivatives                               ... (center of mass: -0.005321,  0.003132 -0.007657)done   (      0.2 sec)

Total SCF Hessian time: 0 days 0 hours 0 min 19 sec 

Writing the Hessian file to the disk             ... done


Maximum memory used throughout the entire SCFHESS-calculation: 143.9 MB

-----------------------
VIBRATIONAL FREQUENCIES
-----------------------

Scaling factor for frequencies =  1.000000000  (already applied!)

   0:         0.00 cm**-1
   1:         0.00 cm**-1
   2:         0.00 cm**-1
   3:         0.00 cm**-1
   4:         0.00 cm**-1
   5:         0.00 cm**-1
   6:       512.02 cm**-1
   7:       512.41 cm**-1
   8:       707.71 cm**-1
   9:      1097.61 cm**-1
  10:      1270.07 cm**-1
  11:      1270.42 cm**-1


------------
NORMAL MODES
------------

These modes are the Cartesian displacements weighted by the diagonal matrix
M(i,i)=1/sqrt(m[i]) where m[i] is the mass of the displaced atom
Thus, these vectors are normalized but *not* orthogonal

                  0          1          2          3          4          5    
      0       0.000000   0.000000   0.000000   0.000000   0.000000   0.000000
      1       0.000000   0.000000   0.000000   0.000000   0.000000   0.000000
      2       0.000000   0.000000   0.000000   0.000000   0.000000   0.000000
      3       0.000000   0.000000   0.000000   0.000000   0.000000   0.000000
      4       0.000000   0.000000   0.000000   0.000000   0.000000   0.000000
      5       0.000000   0.000000   0.000000   0.000000   0.000000   0.000000
      6       0.000000   0.000000   0.000000   0.000000   0.000000   0.000000
      7       0.000000   0.000000   0.000000   0.000000   0.000000   0.000000
      8       0.000000   0.000000   0.000000   0.000000   0.000000   0.000000
      9       0.000000   0.000000   0.000000   0.000000   0.000000   0.000000
     10       0.000000   0.000000   0.000000   0.000000   0.000000   0.000000
     11       0.000000   0.000000   0.000000   0.000000   0.000000   0.000000
                  6          7          8          9         10         11    
      0      -0.093574   0.313266   0.006272   0.007080  -0.408576   0.801223
      1      -0.313457  -0.093365  -0.003731  -0.004764   0.801206   0.408561
      2       0.001107   0.003730  -0.628750  -0.802408  -0.008451   0.004944
      3       0.260477  -0.549806   0.035417  -0.027319   0.044868  -0.031110
      4      -0.417087  -0.221134  -0.426817   0.300095  -0.306815  -0.128478
      5       0.045130   0.012014   0.135259   0.167144  -0.108459  -0.044399
      6       0.318085   0.385339  -0.389525   0.270336   0.225220  -0.199963
      7       0.516574  -0.278824   0.182475  -0.126173  -0.136189   0.053454
      8      -0.006394  -0.037818   0.127808   0.172382   0.097078  -0.075476
      9      -0.519403  -0.033587   0.350143  -0.247493  -0.011776  -0.275480
     10       0.098689   0.558986   0.246701  -0.170910  -0.063538  -0.183278
     11      -0.039435   0.023446   0.134444   0.167776   0.016724   0.116750


-----------
IR SPECTRUM
-----------

 Mode   freq       eps      Int      T**2         TX        TY        TZ
       cm**-1   L/(mol*cm) km/mol    a.u.
----------------------------------------------------------------------------
  6:    512.02   0.000298    1.50  0.000181  (-0.003847 -0.012905  0.000041)
  7:    512.41   0.000297    1.50  0.000181  ( 0.012889 -0.003799  0.000167)
  8:    707.71   0.002373   11.99  0.001046  ( 0.000368 -0.000196 -0.032346)
  9:   1097.61   0.007529   38.05  0.002141  ( 0.000393 -0.000266 -0.046264)
 10:   1270.07   0.072059  364.15  0.017705  (-0.060434  0.118538 -0.001286)
 11:   1270.42   0.072065  364.19  0.017702  ( 0.118526  0.060440  0.000727)

* The epsilon (eps) is given for a Dirac delta lineshape.
** The dipole moment derivative (T) already includes vibrational overlap.

The first frequency considered to be a vibration is 6
The total number of vibrations considered is 6


--------------------------
THERMOCHEMISTRY AT 298.15K
--------------------------

Temperature         ... 298.15 K
Pressure            ... 1.00 atm
Total Mass          ... 69.00 AMU

Throughout the following assumptions are being made:
  (1) The electronic state is orbitally nondegenerate
      but the spin degeneracy is treated
  (2) There are no thermally accessible electronically excited states
  (3) Hindered rotations indicated by low frequency modes are not
      treated as such but are treated as vibrations and this may
      cause some error
  (4) All equations used are the standard statistical mechanics
      equations for an ideal gas
  (5) All vibrations are strictly harmonic

freq.     512.02  E(vib)   ...       0.14 
freq.     512.41  E(vib)   ...       0.13 
freq.     707.71  E(vib)   ...       0.07 
freq.    1097.61  E(vib)   ...       0.02 
freq.    1270.07  E(vib)   ...       0.01 
freq.    1270.42  E(vib)   ...       0.01 

------------
INNER ENERGY
------------

The inner energy is: U= E(el) + E(ZPE) + E(vib) + E(rot) + E(trans)
    E(el)   - is the total energy from the electronic structure calculation
              = E(kin-el) + E(nuc-el) + E(el-el) + E(nuc-nuc)
    E(ZPE)  - the the zero temperature vibrational energy from the frequency calculation
    E(vib)  - the the finite temperature correction to E(ZPE) due to population
              of excited vibrational states
    E(rot)  - is the rotational thermal energy
    E(trans)- is the translational thermal energy

Summary of contributions to the inner energy U:
Electronic energy                ...   -337.63274516 Eh
Zero point energy                ...      0.01223432 Eh       7.68 kcal/mol
Thermal vibrational correction   ...      0.00059052 Eh       0.37 kcal/mol
Thermal rotational correction    ...      0.00141627 Eh       0.89 kcal/mol
Thermal translational correction ...      0.00141627 Eh       0.89 kcal/mol
-----------------------------------------------------------------------
Total thermal energy                   -337.61708778 Eh


Summary of corrections to the electronic energy:
(perhaps to be used in another calculation)
Total thermal correction                  0.00342306 Eh       2.15 kcal/mol
Non-thermal (ZPE) correction              0.01223432 Eh       7.68 kcal/mol
-----------------------------------------------------------------------
Total correction                          0.01565738 Eh       9.83 kcal/mol


--------
ENTHALPY
--------

The enthalpy is H = U + kB*T
                kB is Boltzmann's constant
Total free energy                 ...   -337.61708778 Eh 
Thermal Enthalpy correction       ...      0.00094421 Eh       0.59 kcal/mol
-----------------------------------------------------------------------
Total Enthalpy                    ...   -337.61614357 Eh


Note: Only C1 symmetry has been detected, increase convergence thresholds 
      if your molecule has a higher symmetry. Symmetry factor of 1.0 is   
      used for the rotational entropy correction. 
 

Note: Rotational entropy computed according to Herzberg 
Infrared and Raman Spectra, Chapter V,1, Van Nostrand Reinhold, 1945 
Point Group:  C1, Symmetry Number:   1  
Rotational constants in cm-1:     0.363507     0.363342     0.187985 

Vibrational entropy computed according to the QRRHO of S. Grimme
Chem.Eur.J. 2012 18 9955


-------
ENTROPY
-------

The entropy contributions are T*S = T*(S(el)+S(vib)+S(rot)+S(trans))
     S(el)   - electronic entropy
     S(vib)  - vibrational entropy
     S(rot)  - rotational entropy
     S(trans)- translational entropy
The entropies will be listed as multiplied by the temperature to get
units of energy

Electronic entropy                ...      0.00065446 Eh      0.41 kcal/mol
Vibrational entropy               ...      0.00079848 Eh      0.50 kcal/mol
Rotational entropy                ...      0.01125554 Eh      7.06 kcal/mol
Translational entropy             ...      0.01834582 Eh     11.51 kcal/mol
-----------------------------------------------------------------------
Final entropy term                ...      0.03105430 Eh     19.49 kcal/mol

In case the symmetry of your molecule has not been determined correctly
or in case you have a reason to use a different symmetry number we print 
out the resulting rotational entropy values for sn=1,12 :
 --------------------------------------------------------
|  sn= 1 | S(rot)=       0.01125554 Eh      7.06 kcal/mol|
|  sn= 2 | S(rot)=       0.01060109 Eh      6.65 kcal/mol|
|  sn= 3 | S(rot)=       0.01021825 Eh      6.41 kcal/mol|
|  sn= 4 | S(rot)=       0.00994663 Eh      6.24 kcal/mol|
|  sn= 5 | S(rot)=       0.00973594 Eh      6.11 kcal/mol|
|  sn= 6 | S(rot)=       0.00956380 Eh      6.00 kcal/mol|
|  sn= 7 | S(rot)=       0.00941825 Eh      5.91 kcal/mol|
|  sn= 8 | S(rot)=       0.00929217 Eh      5.83 kcal/mol|
|  sn= 9 | S(rot)=       0.00918097 Eh      5.76 kcal/mol|
|  sn=10 | S(rot)=       0.00908149 Eh      5.70 kcal/mol|
|  sn=11 | S(rot)=       0.00899150 Eh      5.64 kcal/mol|
|  sn=12 | S(rot)=       0.00890934 Eh      5.59 kcal/mol|
 --------------------------------------------------------


-------------------
GIBBS FREE ENERGY
-------------------

The Gibbs free energy is G = H - T*S

Total enthalpy                    ...   -337.61614357 Eh 
Total entropy correction          ...     -0.03105430 Eh    -19.49 kcal/mol
-----------------------------------------------------------------------
Final Gibbs free energy         ...   -337.64719787 Eh

For completeness - the Gibbs free energy minus the electronic energy
G-E(el)                           ...     -0.01445271 Eh     -9.07 kcal/mol


Timings for individual modules:

Sum of individual times         ...       57.454 sec (=   0.958 min)
GTO integral calculation        ...        9.379 sec (=   0.156 min)  16.3 %
SCF iterations                  ...       21.589 sec (=   0.360 min)  37.6 %
SCF Gradient evaluation         ...        4.354 sec (=   0.073 min)   7.6 %
Geometry relaxation             ...        0.093 sec (=   0.002 min)   0.2 %
Analytical frequency calculation...       22.040 sec (=   0.367 min)  38.4 %
                             ****ORCA TERMINATED NORMALLY****
TOTAL RUN TIME: 0 days 0 hours 1 minutes 1 seconds 462 msec

slurmID:    32210517
totalRuntime[s]:    61.506120501
