
                                 *****************
                                 * O   R   C   A *
                                 *****************

                                            #,                                       
                                            ###                                      
                                            ####                                     
                                            #####                                    
                                            ######                                   
                                           ########,                                 
                                     ,,################,,,,,                         
                               ,,#################################,,                 
                          ,,##########################################,,             
                       ,#########################################, ''#####,          
                    ,#############################################,,   '####,        
                  ,##################################################,,,,####,       
                ,###########''''           ''''###############################       
              ,#####''   ,,,,##########,,,,          '''####'''          '####       
            ,##' ,,,,###########################,,,                        '##       
           ' ,,###''''                  '''############,,,                           
         ,,##''                                '''############,,,,        ,,,,,,###''
      ,#''                                            '''#######################'''  
     '                                                          ''''####''''         
             ,#######,   #######,   ,#######,      ##                                
            ,#'     '#,  ##    ##  ,#'     '#,    #''#        ######   ,####,        
            ##       ##  ##   ,#'  ##            #'  '#       #        #'  '#        
            ##       ##  #######   ##           ,######,      #####,   #    #        
            '#,     ,#'  ##    ##  '#,     ,#' ,#      #,         ##   #,  ,#        
             '#######'   ##     ##  '#######'  #'      '#     #####' # '####'        



                  #######################################################
                  #                        -***-                        #
                  #          Department of theory and spectroscopy      #
                  #    Directorship and core code : Frank Neese         #
                  #        Max Planck Institute fuer Kohlenforschung    #
                  #                Kaiser Wilhelm Platz 1               #
                  #                 D-45470 Muelheim/Ruhr               #
                  #                      Germany                        #
                  #                                                     #
                  #                  All rights reserved                #
                  #                        -***-                        #
                  #######################################################


                         Program Version 5.0.4 -  RELEASE  -


 With contributions from (in alphabetic order):
   Daniel Aravena         : Magnetic Suceptibility
   Michael Atanasov       : Ab Initio Ligand Field Theory (pilot matlab implementation)
   Alexander A. Auer      : GIAO ZORA, VPT2 properties, NMR spectrum
   Ute Becker             : Parallelization
   Giovanni Bistoni       : ED, misc. LED, open-shell LED, HFLD
   Martin Brehm           : Molecular dynamics
   Dmytro Bykov           : SCF Hessian
   Vijay G. Chilkuri      : MRCI spin determinant printing, contributions to CSF-ICE
   Dipayan Datta          : RHF DLPNO-CCSD density
   Achintya Kumar Dutta   : EOM-CC, STEOM-CC
   Dmitry Ganyushin       : Spin-Orbit,Spin-Spin,Magnetic field MRCI
   Miquel Garcia          : C-PCM and meta-GGA Hessian, CC/C-PCM, Gaussian charge scheme
   Yang Guo               : DLPNO-NEVPT2, F12-NEVPT2, CIM, IAO-localization
   Andreas Hansen         : Spin unrestricted coupled pair/coupled cluster methods
   Benjamin Helmich-Paris : MC-RPA, TRAH-SCF, COSX integrals
   Lee Huntington         : MR-EOM, pCC
   Robert Izsak           : Overlap fitted RIJCOSX, COSX-SCS-MP3, EOM
   Marcus Kettner         : VPT2
   Christian Kollmar      : KDIIS, OOCD, Brueckner-CCSD(T), CCSD density, CASPT2, CASPT2-K
   Simone Kossmann        : Meta GGA functionals, TD-DFT gradient, OOMP2, MP2 Hessian
   Martin Krupicka        : Initial AUTO-CI
   Lucas Lang             : DCDCAS
   Marvin Lechner         : AUTO-CI (C++ implementation), FIC-MRCC
   Dagmar Lenk            : GEPOL surface, SMD
   Dimitrios Liakos       : Extrapolation schemes; Compound Job, initial MDCI parallelization
   Dimitrios Manganas     : Further ROCIS development; embedding schemes
   Dimitrios Pantazis     : SARC Basis sets
   Anastasios Papadopoulos: AUTO-CI, single reference methods and gradients
   Taras Petrenko         : DFT Hessian,TD-DFT gradient, ASA, ECA, R-Raman, ABS, FL, XAS/XES, NRVS
   Peter Pinski           : DLPNO-MP2, DLPNO-MP2 Gradient
   Christoph Reimann      : Effective Core Potentials
   Marius Retegan         : Local ZFS, SOC
   Christoph Riplinger    : Optimizer, TS searches, QM/MM, DLPNO-CCSD(T), (RO)-DLPNO pert. Triples
   Tobias Risthaus        : Range-separated hybrids, TD-DFT gradient, RPA, STAB
   Michael Roemelt        : Original ROCIS implementation
   Masaaki Saitow         : Open-shell DLPNO-CCSD energy and density
   Barbara Sandhoefer     : DKH picture change effects
   Avijit Sen             : IP-ROCIS
   Kantharuban Sivalingam : CASSCF convergence, NEVPT2, FIC-MRCI
   Bernardo de Souza      : ESD, SOC TD-DFT
   Georgi Stoychev        : AutoAux, RI-MP2 NMR, DLPNO-MP2 response
   Willem Van den Heuvel  : Paramagnetic NMR
   Boris Wezisla          : Elementary symmetry handling
   Frank Wennmohs         : Technical directorship


 We gratefully acknowledge several colleagues who have allowed us to
 interface, adapt or use parts of their codes:
   Stefan Grimme, W. Hujo, H. Kruse, P. Pracht,  : VdW corrections, initial TS optimization,
                  C. Bannwarth, S. Ehlert          DFT functionals, gCP, sTDA/sTD-DF
   Ed Valeev, F. Pavosevic, A. Kumar             : LibInt (2-el integral package), F12 methods
   Garnet Chan, S. Sharma, J. Yang, R. Olivares  : DMRG
   Ulf Ekstrom                                   : XCFun DFT Library
   Mihaly Kallay                                 : mrcc  (arbitrary order and MRCC methods)
   Jiri Pittner, Ondrej Demel                    : Mk-CCSD
   Frank Weinhold                                : gennbo (NPA and NBO analysis)
   Christopher J. Cramer and Donald G. Truhlar   : smd solvation model
   Lars Goerigk                                  : TD-DFT with DH, B97 family of functionals
   V. Asgeirsson, H. Jonsson                     : NEB implementation
   FAccTs GmbH                                   : IRC, NEB, NEB-TS, DLPNO-Multilevel, CI-OPT
                                                   MM, QMMM, 2- and 3-layer-ONIOM, Crystal-QMMM,
                                                   LR-CPCM, SF, NACMEs, symmetry and pop. for TD-DFT,
                                                   nearIR, NL-DFT gradient (VV10), updates on ESD,
                                                   ML-optimized integration grids
   S Lehtola, MJT Oliveira, MAL Marques          : LibXC Library
   Liviu Ungur et al                             : ANISO software


 Your calculation uses the libint2 library for the computation of 2-el integrals
 For citations please refer to: http://libint.valeyev.net

 Your ORCA version has been built with support for libXC version: 5.1.0
 For citations please refer to: https://tddft.org/programs/libxc/

 This ORCA versions uses:
   CBLAS   interface :  Fast vector & matrix operations
   LAPACKE interface :  Fast linear algebra routines
   SCALAPACK package :  Parallel linear algebra routines
   Shared memory     :  Shared parallel matrices
   BLAS/LAPACK       :  OpenBLAS 0.3.15  USE64BITINT DYNAMIC_ARCH NO_AFFINITY SkylakeX SINGLE_THREADED
        Core in use  :  SkylakeX
   Copyright (c) 2011-2014, The OpenBLAS Project


Your calculation utilizes the atom-pairwise dispersion correction
with the zero-damping scheme (D30)
Cite in your paper:
S.Grimme, J.Antony, S.Ehrlich and H.Krieg, J.Chem.Phys., 132, (2010), 154104 
   

XCFun DFT library Copyright 2009-2010 Ulf Ekstrom and contributors.
See http://admol.org/xcfun for more information.
This is free software; see the source code for copying conditions.
There is ABSOLUTELY NO WARRANTY; not even for MERCHANTABILITY or FITNESS FOR A PARTICULAR PURPOSE.
For details see the documentation.
Scientific users of this library should cite U. Ekstrom, L. Visscher, R. Bast, A. J. Thorvaldsen and K. Ruud;
J.Chem.Theor.Comp. 2010, DOI: 10.1021/ct100117s
XCFun Version 0.99 

================================================================================

----- Orbital basis set information -----
Your calculation utilizes the basis: def2-TZVPD
   F. Weigend and R. Ahlrichs, Phys. Chem. Chem. Phys. 7, 3297 (2005).
   D. Rappoport and F. Furche, J. Chem. Phys. 133 134105 (2010).

----- AuxJ basis set information -----
Your calculation utilizes the auxiliary basis: def2/J
   F. Weigend, Phys. Chem. Chem. Phys. 8, 1057 (2006).

================================================================================
                                        WARNINGS
                       Please study these warnings very carefully!
================================================================================


WARNING: Geometry Optimization
  ===> : Switching off AutoStart
         For restart on a previous wavefunction, please use MOREAD

INFO   : the flag for use of the SHARK integral package has been found!

================================================================================
                                       INPUT FILE
================================================================================
NAME = /beegfs/scratch/ispackman/PFAS_EPR_calcs/benchmark/JChemEd_CF3_radical/CF3_radical_98.5_degrees_IN-PROGRESS/CF3_radical_98.5_degrees.inp
|  1> ! UKS TightSCF wB97x-D3 def2-TZVPD xyzfile opt freq
|  2> 
|  3> # CF3 radical 98.5 degrees fixed
|  4> 
|  5> %maxcore 1000
|  6> %pal
|  7> nprocs 18
|  8> end
|  9> 
| 10> %geom Constraints
| 11>         { A * 0 * C }
| 12>     end
| 13> end
| 14> * xyz 0 2
| 15> C 0.00 0.00 0.00
| 16> F 1.1503103144 0.0000000000 -0.6371900664
| 17> F -0.5751551572 0.9961979545 -0.6371900664
| 18> F -0.5751551572 -0.9961979545 -0.6371900664
| 19> **                         ****END OF INPUT****
================================================================================

                       *****************************
                       * Geometry Optimization Run *
                       *****************************

Geometry optimization settings:
Update method            Update   .... BFGS
Choice of coordinates    CoordSys .... Z-matrix Internals
Initial Hessian          InHess   .... Almoef's Model

Convergence Tolerances:
Energy Change            TolE     ....  5.0000e-06 Eh
Max. Gradient            TolMAXG  ....  3.0000e-04 Eh/bohr
RMS Gradient             TolRMSG  ....  1.0000e-04 Eh/bohr
Max. Displacement        TolMAXD  ....  4.0000e-03 bohr
RMS Displacement         TolRMSD  ....  2.0000e-03 bohr
Strict Convergence                ....  False
------------------------------------------------------------------------------
                        ORCA OPTIMIZATION COORDINATE SETUP
------------------------------------------------------------------------------

The optimization will be done in new redundant internal coordinates
Making redundant internal coordinates   ...  (new redundants) done
Evaluating the initial hessian          ...  (Almloef) done
Evaluating the coordinates              ...  done
Calculating the B-matrix                .... done
Calculating the G-matrix                .... done
Diagonalizing the G-matrix              .... done
Imposing constraints:
 Iter   0:  RMS(Cart)=    0.0000000000 RMS(Int)=    0.0000000000
CONVERGED
Will constrain atom 0 coordinate 1 
Will constrain atom 0 coordinate 2 
Will constrain atom 1 coordinate 2 
The first mode is                       ....    1
The number of degrees of freedom        ....    6
Storing new coordinates                 .... done

    -----------------------------------------------------------------
                    Redundant Internal Coordinates


    -----------------------------------------------------------------
         Definition                    Initial Value    Approx d2E/dq
    -----------------------------------------------------------------
      1. B(F   1,C   0)                  1.3150         0.684896   
      2. B(F   2,C   0)                  1.3150         0.684896   
      3. B(F   3,C   0)                  1.3150         0.684896   
      4. A(F   2,C   0,F   3)           98.5000         0.440101 C 
      5. A(F   1,C   0,F   2)           98.5000         0.440101 C 
      6. A(F   1,C   0,F   3)           98.5000         0.440101 C 
      7. I(F   1,F   3,F   2,C   0)     76.9126         0.002727   
    -----------------------------------------------------------------

Number of atoms                         .... 4
Number of degrees of freedom            .... 7

         *************************************************************
         *                GEOMETRY OPTIMIZATION CYCLE   1            *
         *************************************************************
---------------------------------
CARTESIAN COORDINATES (ANGSTROEM)
---------------------------------
  C      0.000000    0.000000    0.000000
  F      1.150310    0.000000   -0.637190
  F     -0.575155    0.996198   -0.637190
  F     -0.575155   -0.996198   -0.637190

----------------------------
CARTESIAN COORDINATES (A.U.)
----------------------------
  NO LB      ZA    FRAG     MASS         X           Y           Z
   0 C     6.0000    0    12.011    0.000000    0.000000    0.000000
   1 F     9.0000    0    18.998    2.173771    0.000000   -1.204115
   2 F     9.0000    0    18.998   -1.086886    1.882541   -1.204115
   3 F     9.0000    0    18.998   -1.086886   -1.882541   -1.204115

--------------------------------
INTERNAL COORDINATES (ANGSTROEM)
--------------------------------
 C      0   0   0     0.000000000000     0.00000000     0.00000000
 F      1   0   0     1.315000000051     0.00000000     0.00000000
 F      1   2   0     1.315000000047    98.50000000     0.00000000
 F      1   2   3     1.315000000047    98.50000000    99.98826232

---------------------------
INTERNAL COORDINATES (A.U.)
---------------------------
 C      0   0   0     0.000000000000     0.00000000     0.00000000
 F      1   0   0     2.484989866203     0.00000000     0.00000000
 F      1   2   0     2.484989866195    98.50000000     0.00000000
 F      1   2   3     2.484989866195    98.50000000    99.98826232

---------------------
BASIS SET INFORMATION
---------------------
There are 2 groups of distinct atoms

 Group   1 Type C   : 12s6p3d1f contracted to 6s3p3d1f pattern {621111/411/111/1}
 Group   2 Type F   : 12s7p3d1f contracted to 6s4p3d1f pattern {621111/4111/111/1}

Atom   0C    basis set group =>   1
Atom   1F    basis set group =>   2
Atom   2F    basis set group =>   2
Atom   3F    basis set group =>   2
---------------------------------
AUXILIARY/J BASIS SET INFORMATION
---------------------------------
There are 2 groups of distinct atoms

 Group   1 Type C   : 12s5p4d2f1g contracted to 6s4p3d1f1g pattern {711111/2111/211/2/1}
 Group   2 Type F   : 12s5p4d2f1g contracted to 6s4p3d1f1g pattern {711111/2111/211/2/1}

Atom   0C    basis set group =>   1
Atom   1F    basis set group =>   2
Atom   2F    basis set group =>   2
Atom   3F    basis set group =>   2


           ************************************************************
           *        Program running with 18 parallel MPI-processes    *
           *              working on a common directory               *
           ************************************************************
------------------------------------------------------------------------------
                           ORCA GTO INTEGRAL CALCULATION
                           -- RI-GTO INTEGRALS CHOSEN --
------------------------------------------------------------------------------
------------------------------------------------------------------------------
                   ___                                                        
                  /   \      - P O W E R E D   B Y -                         
                 /     \                                                     
                 |  |  |   _    _      __       _____    __    __             
                 |  |  |  | |  | |    /  \     |  _  \  |  |  /  |          
                  \  \/   | |  | |   /    \    | | | |  |  | /  /          
                 / \  \   | |__| |  /  /\  \   | |_| |  |  |/  /          
                |  |  |   |  __  | /  /__\  \  |    /   |      \           
                |  |  |   | |  | | |   __   |  |    \   |  |\   \          
                \     /   | |  | | |  |  |  |  | |\  \  |  | \   \       
                 \___/    |_|  |_| |__|  |__|  |_| \__\ |__|  \__/        
                                                                              
                      - O R C A' S   B I G   F R I E N D -                    
                                      &                                       
                       - I N T E G R A L  F E E D E R -                       
                                                                              
 v1 FN, 2020, v2 2021                                                         
------------------------------------------------------------------------------


Reading SHARK input file /beegfs/scratch/ispackman/PFAS_EPR_calcs/benchmark/JChemEd_CF3_radical/CF3_radical_98.5_degrees_IN-PROGRESS/CF3_radical_98.5_degrees.SHARKINP.tmp ... ok
----------------------
SHARK INTEGRAL PACKAGE
----------------------

Number of atoms                             ...      4
Number of basis functions                   ...    157
Number of shells                            ...     55
Maximum angular momentum                    ...      3
Integral batch strategy                     ... SHARK/LIBINT Hybrid
RI-J (if used) integral strategy            ... SPLIT-RIJ (Revised 2003 algorithm where possible)
Printlevel                                  ...      1
Contraction scheme used                     ... SEGMENTED contraction
Coulomb Range Separation                    ... NOT USED
Exchange Range Separation                   ... Long Range
   Mu parameter                             ...  0.250000
   Scaling (regular/separated)              ...  0.195728  0.804272
Finite Nucleus Model                        ... NOT USED
Auxiliary Coulomb fitting basis             ... AVAILABLE
   # of basis functions in Aux-J            ...    196
   # of shells in Aux-J                     ...     60
   Maximum angular momentum in Aux-J        ...      4
Auxiliary J/K fitting basis                 ... NOT available
Auxiliary Correlation fitting basis         ... NOT available
Auxiliary 'external' fitting basis          ... NOT available
Integral threshold                          ...     2.500000e-11
Primitive cut-off                           ...     2.500000e-12
Primitive pair pre-selection threshold      ...     2.500000e-12

Calculating pre-screening integrals         ... done (  0.0 sec) Dimension = 55
Organizing shell pair data                  ... done (  0.0 sec)
Shell pair information
Total number of shell pairs                 ...      1540
Shell pairs after pre-screening             ...      1512
Total number of primitive shell pairs       ...      4274
Primitive shell pairs kept                  ...      3583
          la=0 lb=0:    282 shell pairs
          la=1 lb=0:    360 shell pairs
          la=1 lb=1:    120 shell pairs
          la=2 lb=0:    278 shell pairs
          la=2 lb=1:    180 shell pairs
          la=2 lb=2:     78 shell pairs
          la=3 lb=0:     96 shell pairs
          la=3 lb=1:     60 shell pairs
          la=3 lb=2:     48 shell pairs
          la=3 lb=3:     10 shell pairs

Calculating one electron integrals          ... done (  0.0 sec)
Calculating RI/J V-Matrix + Cholesky decomp.... done (  0.1 sec)
Calculating Nuclear repulsion               ... done (  0.0 sec) ENN=    129.731829139194 Eh

SHARK setup successfully completed in   0.3 seconds

Maximum memory used throughout the entire GTOINT-calculation: 15.2 MB


           ************************************************************
           *        Program running with 18 parallel MPI-processes    *
           *              working on a common directory               *
           ************************************************************
-------------------------------------------------------------------------------
                                 ORCA SCF
-------------------------------------------------------------------------------

------------
SCF SETTINGS
------------
Hamiltonian:
 Density Functional     Method          .... DFT(GTOs)
 Exchange Functional    Exchange        .... WB97X-D3
 Correlation Functional Correlation     .... WB97X-D3
 Gradients option       PostSCFGGA      .... off
 Hybrid DFT is turned on
   Fraction HF Exchange ScalHFX         ....  0.195728
   Scaling of DF-GGA-X  ScalDFX         ....  0.000000
   Scaling of DF-GGA-C  ScalDFC         ....  1.000000
   Scaling of DF-LDA-C  ScalLDAC        ....  1.000000
   Perturbative correction              ....  0.000000
   Density functional embedding theory  .... OFF
 Long-range corrected/Screened/Range-Separated Hybrid DFT is turned on
   Amount of maximum screened exact exchange              ....  0.804272
   Range separation parameter mu (erf(mu*r12)/r12)        ....  0.250000
 RI-approximation to the Coulomb term is turned on
   Number of AuxJ basis functions       .... 196
   RIJ-COSX (HFX calculated with COS-X)).... on


General Settings:
 Integral files         IntName         .... /beegfs/scratch/ispackman/PFAS_EPR_calcs/benchmark/JChemEd_CF3_radical/CF3_radical_98.5_degrees_IN-PROGRESS/CF3_radical_98.5_degrees
 Hartree-Fock type      HFTyp           .... UHF
 Total Charge           Charge          ....    0
 Multiplicity           Mult            ....    2
 Number of Electrons    NEL             ....   33
 Basis Dimension        Dim             ....  157
 Nuclear Repulsion      ENuc            ....    129.7318291392 Eh

Convergence Acceleration:
 DIIS                   CNVDIIS         .... on
   Start iteration      DIISMaxIt       ....    12
   Startup error        DIISStart       ....  0.200000
   # of expansion vecs  DIISMaxEq       ....     5
   Bias factor          DIISBfac        ....   1.050
   Max. coefficient     DIISMaxC        ....  10.000
 Trust-Rad. Augm. Hess. CNVTRAH         .... auto
   Auto Start mean grad. ratio tolernc. ....  1.125000
   Auto Start start iteration           ....    20
   Auto Start num. interpolation iter.  ....    10
   Max. Number of Micro iterations      ....    16
   Max. Number of Macro iterations      .... Maxiter - #DIIS iter
   Number of Davidson start vectors     ....     2
   Converg. threshold I  (grad. norm)   ....   1.000e-05
   Converg. threshold II (energy diff.) ....   1.000e-08
   Grad. Scal. Fac. for Micro threshold ....   0.100
   Minimum threshold for Micro iter.    ....   0.010
   NR start threshold (gradient norm)   ....   0.001
   Initial trust radius                 ....   0.400
   Minimum AH scaling param. (alpha)    ....   1.000
   Maximum AH scaling param. (alpha)    .... 1000.000
   Orbital update algorithm             .... Taylor
   White noise on init. David. guess    .... on
   Maximum white noise                  ....   0.010
   Quad. conv. algorithm                .... NR
 SOSCF                  CNVSOSCF        .... off
 Level Shifting         CNVShift        .... on
   Level shift para.    LevelShift      ....    0.2500
   Turn off err/grad.   ShiftErr        ....    0.0010
 Zerner damping         CNVZerner       .... off
 Static damping         CNVDamp         .... on
   Fraction old density DampFac         ....    0.7000
   Max. Damping (<1)    DampMax         ....    0.9800
   Min. Damping (>=0)   DampMin         ....    0.0000
   Turn off err/grad.   DampErr         ....    0.1000
 Fernandez-Rico         CNVRico         .... off

SCF Procedure:
 Maximum # iterations   MaxIter         ....   125
 SCF integral mode      SCFMode         .... Direct
   Integral package                     .... SHARK and LIBINT hybrid scheme
 Reset frequency        DirectResetFreq ....    20
 Integral Threshold     Thresh          ....  2.500e-11 Eh
 Primitive CutOff       TCut            ....  2.500e-12 Eh

Convergence Tolerance:
 Convergence Check Mode ConvCheckMode   .... Total+1el-Energy
 Convergence forced     ConvForced      .... 0
 Energy Change          TolE            ....  1.000e-08 Eh
 1-El. energy change                    ....  1.000e-05 Eh
 DIIS Error             TolErr          ....  5.000e-07


Diagonalization of the overlap matrix:
Smallest eigenvalue                        ... 3.632e-04
Time for diagonalization                   ...    0.007 sec
Threshold for overlap eigenvalues          ... 1.000e-08
Number of eigenvalues below threshold      ... 0
Time for construction of square roots      ...    0.025 sec
Total time needed                          ...    0.034 sec

Time for model grid setup =    0.057 sec

------------------------------
INITIAL GUESS: MODEL POTENTIAL
------------------------------
Loading Hartree-Fock densities                     ... done
Calculating cut-offs                               ... done
Initializing the effective Hamiltonian             ... done
Setting up the integral package (SHARK)            ... done
Starting the Coulomb interaction                   ... done (   0.1 sec)
Reading the grid                                   ... done
Mapping shells                                     ... done
Starting the XC term evaluation                    ... done (   0.0 sec)
  promolecular density results
     # of electrons  =     33.000232808
     EX              =    -35.105672300
     EC              =     -1.149313400
     EX+EC           =    -36.254985699
Transforming the Hamiltonian                       ... done (   0.0 sec)
Diagonalizing the Hamiltonian                      ... done (   0.0 sec)
Back transforming the eigenvectors                 ... done (   0.0 sec)
Now organizing SCF variables                       ... done
                      ------------------
                      INITIAL GUESS DONE (   0.2 sec)
                      ------------------
-------------------
DFT GRID GENERATION
-------------------

General Integration Accuracy     IntAcc      ... 4.388
Radial Grid Type                 RadialGrid  ... OptM3 with GC (2021)
Angular Grid (max. ang.)         AngularGrid ... 4 (Lebedev-302)
Angular grid pruning method      GridPruning ... 4 (adaptive)
Weight generation scheme         WeightScheme... Becke
Basis function cutoff            BFCut       ... 1.0000e-11
Integration weight cutoff        WCut        ... 1.0000e-14
Angular grids for H and He will be reduced by one unit
Partially contracted basis set               ... off
Rotationally invariant grid construction     ... off

Total number of grid points                  ...    25776
Total number of batches                      ...      404
Average number of points per batch           ...       63
Average number of grid points per atom       ...     6444
Time for grid setup =    0.156 sec

--------------------
COSX GRID GENERATION
--------------------

GRIDX 1
-------
General Integration Accuracy     IntAcc      ... 3.816
Radial Grid Type                 RadialGrid  ... OptM3 with GC (2021)
Angular Grid (max. ang.)         AngularGrid ... 1 (Lebedev-50)
Angular grid pruning method      GridPruning ... 4 (adaptive)
Weight generation scheme         WeightScheme... Becke
Basis function cutoff            BFCut       ... 1.0000e-11
Integration weight cutoff        WCut        ... 1.0000e-14
Angular grids for H and He will be reduced by one unit
Partially contracted basis set               ... on
Rotationally invariant grid construction     ... off

Total number of grid points                  ...     3272
Total number of batches                      ...       53
Average number of points per batch           ...       61
Average number of grid points per atom       ...      818
UseSFitting                                  ... on

GRIDX 2
-------
General Integration Accuracy     IntAcc      ... 4.020
Radial Grid Type                 RadialGrid  ... OptM3 with GC (2021)
Angular Grid (max. ang.)         AngularGrid ... 2 (Lebedev-110)
Angular grid pruning method      GridPruning ... 4 (adaptive)
Weight generation scheme         WeightScheme... Becke
Basis function cutoff            BFCut       ... 1.0000e-11
Integration weight cutoff        WCut        ... 1.0000e-14
Angular grids for H and He will be reduced by one unit
Partially contracted basis set               ... on
Rotationally invariant grid construction     ... off

Total number of grid points                  ...     9125
Total number of batches                      ...      144
Average number of points per batch           ...       63
Average number of grid points per atom       ...     2281
UseSFitting                                  ... on

GRIDX 3
-------
General Integration Accuracy     IntAcc      ... 4.338
Radial Grid Type                 RadialGrid  ... OptM3 with GC (2021)
Angular Grid (max. ang.)         AngularGrid ... 3 (Lebedev-194)
Angular grid pruning method      GridPruning ... 4 (adaptive)
Weight generation scheme         WeightScheme... Becke
Basis function cutoff            BFCut       ... 1.0000e-11
Integration weight cutoff        WCut        ... 1.0000e-14
Angular grids for H and He will be reduced by one unit
Partially contracted basis set               ... on
Rotationally invariant grid construction     ... off

Total number of grid points                  ...    19685
Total number of batches                      ...      309
Average number of points per batch           ...       63
Average number of grid points per atom       ...     4921
UseSFitting                                  ... on

Time for X-Grid setup             =    0.368 sec

--------------
SCF ITERATIONS
--------------
ITER       Energy         Delta-E        Max-DP      RMS-DP      [F,P]     Damp
               ***  Starting incremental Fock matrix formation  ***
  0   -337.5186454455   0.000000000000 0.01858961  0.00041746  0.0702243 0.7000
  1   -337.5485392943  -0.029893848853 0.01089063  0.00027638  0.0329378 0.7000
                               ***Turning on DIIS***
  2   -337.5608709735  -0.012331679221 0.02622176  0.00052040  0.0169098 0.0000
  3   -337.5826640584  -0.021793084854 0.00671450  0.00015494  0.0150710 0.0000
  4   -337.5862066187  -0.003542560366 0.00498041  0.00007991  0.0034843 0.0000
  5   -337.5864198551  -0.000213236401 0.00290108  0.00004707  0.0019950 0.0000
  6   -337.5864840684  -0.000064213231 0.00238386  0.00004241  0.0008575 0.0000
               *** Restarting incremental Fock matrix formation ***
                                   *** Resetting DIIS ***
  7   -337.5865106880  -0.000026619593 0.00047960  0.00000745  0.0001898 0.0000
  8   -337.5865115523  -0.000000864319 0.00008219  0.00000213  0.0001014 0.0000
  9   -337.5865117614  -0.000000209075 0.00006229  0.00000160  0.0000974 0.0000
 10   -337.5865118719  -0.000000110570 0.00004819  0.00000059  0.0000120 0.0000
 11   -337.5865118746  -0.000000002706 0.00001166  0.00000014  0.0000019 0.0000
                            ***DIIS convergence achieved***

               *****************************************************
               *                     SUCCESS                       *
               *           SCF CONVERGED AFTER  12 CYCLES          *
               *****************************************************

Old exchange energy                            =    -10.543890068 Eh
New exchange energy                            =    -10.543879004 Eh
Exchange energy change after final integration =      0.000011064 Eh
Total energy after final integration           =   -337.586500811 Eh
Final COS-X integration done in                =     0.405 sec

----------------
TOTAL SCF ENERGY
----------------

Total Energy       :         -337.58650081 Eh           -9186.19570 eV

Components:
Nuclear Repulsion  :          129.73182914 Eh            3530.18254 eV
Electronic Energy  :         -467.31832995 Eh          -12716.37825 eV
One Electron Energy:         -726.43463922 Eh          -19767.29148 eV
Two Electron Energy:          259.11630927 Eh            7050.91324 eV
Max COSX asymmetry :            0.00000043 Eh               0.00001 eV

Virial components:
Potential Energy   :         -674.45546631 Eh          -18352.86628 eV
Kinetic Energy     :          336.86896550 Eh            9166.67058 eV
Virial Ratio       :            2.00213001


DFT components:
N(Alpha)           :       16.999882716284 electrons
N(Beta)            :       15.999890962860 electrons
N(Total)           :       32.999773679144 electrons
E(XC)              :      -26.222117480842 Eh       
DFET-embed. en.    :        0.000000000000 Eh       

---------------
SCF CONVERGENCE
---------------

  Last Energy change         ...   -7.3817e-10  Tolerance :   1.0000e-08
  Last MAX-Density change    ...    0.0000e+00  Tolerance :   1.0000e-07
  Last RMS-Density change    ...    0.0000e+00  Tolerance :   5.0000e-09
  Last DIIS Error            ...    7.9100e-07  Tolerance :   5.0000e-07

             **** THE GBW FILE WAS UPDATED (/beegfs/scratch/ispackman/PFAS_EPR_calcs/benchmark/JChemEd_CF3_radical/CF3_radical_98.5_degrees_IN-PROGRESS/CF3_radical_98.5_degrees.gbw) ****
             **** DENSITY /beegfs/scratch/ispackman/PFAS_EPR_calcs/benchmark/JChemEd_CF3_radical/CF3_radical_98.5_degrees_IN-PROGRESS/CF3_radical_98.5_degrees.scfp WAS UPDATED ****
             **** ENERGY FILE WAS UPDATED (/beegfs/scratch/ispackman/PFAS_EPR_calcs/benchmark/JChemEd_CF3_radical/CF3_radical_98.5_degrees_IN-PROGRESS/CF3_radical_98.5_degrees.en.tmp) ****
----------------------
UHF SPIN CONTAMINATION
----------------------

Warning: in a DFT calculation there is little theoretical justification to 
         calculate <S**2> as in Hartree-Fock theory. We will do it anyways
         but you should keep in mind that the values have only limited relevance

Expectation value of <S**2>     :     0.752211
Ideal value S*(S+1) for S=0.5   :     0.750000
Deviation                       :     0.002211

             **** THE GBW FILE WAS UPDATED (/beegfs/scratch/ispackman/PFAS_EPR_calcs/benchmark/JChemEd_CF3_radical/CF3_radical_98.5_degrees_IN-PROGRESS/CF3_radical_98.5_degrees.gbw) ****
             **** DENSITY /beegfs/scratch/ispackman/PFAS_EPR_calcs/benchmark/JChemEd_CF3_radical/CF3_radical_98.5_degrees_IN-PROGRESS/CF3_radical_98.5_degrees.scfp WAS UPDATED ****
----------------
ORBITAL ENERGIES
----------------
                 SPIN UP ORBITALS
  NO   OCC          E(Eh)            E(eV) 
   0   1.0000     -24.835517      -675.8088 
   1   1.0000     -24.835516      -675.8088 
   2   1.0000     -24.835512      -675.8086 
   3   1.0000     -10.552888      -287.1587 
   4   1.0000      -1.488773       -40.5116 
   5   1.0000      -1.362297       -37.0700 
   6   1.0000      -1.362295       -37.0699 
   7   1.0000      -0.838228       -22.8093 
   8   1.0000      -0.722442       -19.6586 
   9   1.0000      -0.722434       -19.6584 
  10   1.0000      -0.709460       -19.3054 
  11   1.0000      -0.605614       -16.4796 
  12   1.0000      -0.605606       -16.4794 
  13   1.0000      -0.538089       -14.6421 
  14   1.0000      -0.538089       -14.6421 
  15   1.0000      -0.519198       -14.1281 
  16   1.0000      -0.442990       -12.0544 
  17   0.0000       0.072535         1.9738 
  18   0.0000       0.105106         2.8601 
  19   0.0000       0.105106         2.8601 
  20   0.0000       0.111637         3.0378 
  21   0.0000       0.158852         4.3226 
  22   0.0000       0.158852         4.3226 
  23   0.0000       0.172732         4.7003 
  24   0.0000       0.172733         4.7003 
  25   0.0000       0.191972         5.2238 
  26   0.0000       0.208676         5.6784 
  27   0.0000       0.208683         5.6785 
  28   0.0000       0.241274         6.5654 
  29   0.0000       0.286387         7.7930 
  30   0.0000       0.346786         9.4365 
  31   0.0000       0.346792         9.4367 
  32   0.0000       0.354020         9.6334 
  33   0.0000       0.382296        10.4028 
  34   0.0000       0.382296        10.4028 
  35   0.0000       0.402433        10.9508 
  36   0.0000       0.402435        10.9508 
  37   0.0000       0.404141        10.9972 
  38   0.0000       0.432124        11.7587 
  39   0.0000       0.486080        13.2269 
  40   0.0000       0.486086        13.2271 
  41   0.0000       0.532639        14.4938 
  42   0.0000       0.570357        15.5202 
  43   0.0000       0.625128        17.0106 
  44   0.0000       0.625131        17.0107 
  45   0.0000       0.700813        19.0701 
  46   0.0000       0.700819        19.0703 
  47   0.0000       0.708528        19.2800 
  48   0.0000       0.727230        19.7889 
  49   0.0000       0.739193        20.1145 
  50   0.0000       0.739201        20.1147 
  51   0.0000       0.770577        20.9685 
  52   0.0000       0.794400        21.6167 
  53   0.0000       0.794401        21.6167 
  54   0.0000       0.869514        23.6607 
  55   0.0000       0.903190        24.5770 
  56   0.0000       0.903193        24.5771 
  57   0.0000       0.929819        25.3017 
  58   0.0000       0.973658        26.4946 
  59   0.0000       0.973667        26.4948 
  60   0.0000       1.079537        29.3757 
  61   0.0000       1.079540        29.3758 
  62   0.0000       1.115244        30.3473 
  63   0.0000       1.160891        31.5895 
  64   0.0000       1.160904        31.5898 
  65   0.0000       1.169642        31.8276 
  66   0.0000       1.245757        33.8988 
  67   0.0000       1.251301        34.0496 
  68   0.0000       1.251302        34.0496 
  69   0.0000       1.304023        35.4843 
  70   0.0000       1.304025        35.4843 
  71   0.0000       1.348126        36.6844 
  72   0.0000       1.462890        39.8073 
  73   0.0000       1.462915        39.8080 
  74   0.0000       1.652261        44.9603 
  75   0.0000       2.124150        57.8011 
  76   0.0000       2.167524        58.9813 
  77   0.0000       2.167545        58.9819 
  78   0.0000       2.199833        59.8605 
  79   0.0000       2.212684        60.2102 
  80   0.0000       2.216680        60.3189 
  81   0.0000       2.216704        60.3196 
  82   0.0000       2.330877        63.4264 
  83   0.0000       2.330909        63.4273 
  84   0.0000       2.441463        66.4356 
  85   0.0000       2.464961        67.0750 
  86   0.0000       2.464967        67.0752 
  87   0.0000       2.594690        70.6051 
  88   0.0000       2.594695        70.6052 
  89   0.0000       2.875182        78.2377 
  90   0.0000       2.928936        79.7004 
  91   0.0000       2.928970        79.7013 
  92   0.0000       2.956813        80.4590 
  93   0.0000       3.048539        82.9550 
  94   0.0000       3.178685        86.4964 
  95   0.0000       3.178753        86.4983 
  96   0.0000       3.187957        86.7487 
  97   0.0000       3.292179        89.5847 
  98   0.0000       3.292253        89.5868 
  99   0.0000       3.402422        92.5846 
 100   0.0000       3.402437        92.5850 
 101   0.0000       3.441874        93.6581 
 102   0.0000       3.637090        98.9703 
 103   0.0000       3.637101        98.9706 
 104   0.0000       3.682430       100.2040 
 105   0.0000       3.817393       103.8765 
 106   0.0000       3.943857       107.3178 
 107   0.0000       3.951188       107.5173 
 108   0.0000       3.951246       107.5189 
 109   0.0000       4.107383       111.7676 
 110   0.0000       4.107398       111.7680 
 111   0.0000       4.212795       114.6360 
 112   0.0000       4.308602       117.2430 
 113   0.0000       4.308644       117.2442 
 114   0.0000       5.396984       146.8594 
 115   0.0000       5.397004       146.8599 
 116   0.0000       5.511921       149.9870 
 117   0.0000       6.912948       188.1109 
 118   0.0000       6.912970       188.1115 
 119   0.0000       6.917557       188.2363 
 120   0.0000       6.928721       188.5401 
 121   0.0000       6.928748       188.5408 
 122   0.0000       6.932868       188.6529 
 123   0.0000       6.938129       188.7961 
 124   0.0000       6.938171       188.7972 
 125   0.0000       6.958099       189.3395 
 126   0.0000       7.062030       192.1676 
 127   0.0000       7.062112       192.1698 
 128   0.0000       7.168641       195.0686 
 129   0.0000       7.249466       197.2680 
 130   0.0000       7.249472       197.2682 
 131   0.0000       7.266626       197.7349 
 132   0.0000       7.474537       203.3925 
 133   0.0000       7.493258       203.9019 
 134   0.0000       7.606071       206.9717 
 135   0.0000       7.606083       206.9720 
 136   0.0000       7.783685       211.8048 
 137   0.0000       7.783759       211.8069 
 138   0.0000       8.523780       231.9438 
 139   0.0000       8.523799       231.9444 
 140   0.0000       8.583906       233.5800 
 141   0.0000       8.587188       233.6693 
 142   0.0000       8.618591       234.5238 
 143   0.0000       8.618664       234.5258 
 144   0.0000       8.837477       240.4800 
 145   0.0000       8.843426       240.6419 
 146   0.0000       8.843444       240.6423 
 147   0.0000       9.046674       246.1725 
 148   0.0000       9.121438       248.2069 
 149   0.0000       9.121495       248.2085 
 150   0.0000       9.264684       252.1049 
 151   0.0000       9.398741       255.7527 
 152   0.0000       9.398783       255.7539 
 153   0.0000      22.664712       616.7382 
 154   0.0000      57.375763      1561.2739 
 155   0.0000      57.375792      1561.2747 
 156   0.0000      57.466157      1563.7336 

                 SPIN DOWN ORBITALS
  NO   OCC          E(Eh)            E(eV) 
   0   1.0000     -24.832701      -675.7321 
   1   1.0000     -24.832701      -675.7321 
   2   1.0000     -24.832688      -675.7318 
   3   1.0000     -10.539972      -286.8072 
   4   1.0000      -1.480082       -40.2751 
   5   1.0000      -1.353678       -36.8354 
   6   1.0000      -1.353677       -36.8354 
   7   1.0000      -0.820032       -22.3142 
   8   1.0000      -0.711980       -19.3740 
   9   1.0000      -0.711975       -19.3738 
  10   1.0000      -0.668131       -18.1808 
  11   1.0000      -0.593867       -16.1599 
  12   1.0000      -0.593859       -16.1597 
  13   1.0000      -0.530623       -14.4390 
  14   1.0000      -0.530623       -14.4390 
  15   1.0000      -0.515906       -14.0385 
  16   0.0000      -0.091666        -2.4944 
  17   0.0000       0.082853         2.2545 
  18   0.0000       0.108466         2.9515 
  19   0.0000       0.108466         2.9515 
  20   0.0000       0.125970         3.4278 
  21   0.0000       0.164537         4.4773 
  22   0.0000       0.164538         4.4773 
  23   0.0000       0.177960         4.8425 
  24   0.0000       0.177961         4.8426 
  25   0.0000       0.202536         5.5113 
  26   0.0000       0.231565         6.3012 
  27   0.0000       0.231566         6.3012 
  28   0.0000       0.241924         6.5831 
  29   0.0000       0.292134         7.9494 
  30   0.0000       0.366506         9.9731 
  31   0.0000       0.366509         9.9732 
  32   0.0000       0.366600         9.9757 
  33   0.0000       0.383554        10.4370 
  34   0.0000       0.383554        10.4370 
  35   0.0000       0.405110        11.0236 
  36   0.0000       0.405111        11.0236 
  37   0.0000       0.411481        11.1970 
  38   0.0000       0.442020        12.0280 
  39   0.0000       0.487741        13.2721 
  40   0.0000       0.487747        13.2723 
  41   0.0000       0.535724        14.5778 
  42   0.0000       0.577373        15.7111 
  43   0.0000       0.626953        17.0603 
  44   0.0000       0.626959        17.0604 
  45   0.0000       0.702098        19.1051 
  46   0.0000       0.702102        19.1052 
  47   0.0000       0.708767        19.2865 
  48   0.0000       0.737481        20.0679 
  49   0.0000       0.741716        20.1831 
  50   0.0000       0.741727        20.1834 
  51   0.0000       0.769781        20.9468 
  52   0.0000       0.796407        21.6713 
  53   0.0000       0.796407        21.6713 
  54   0.0000       0.870510        23.6878 
  55   0.0000       0.905540        24.6410 
  56   0.0000       0.905542        24.6411 
  57   0.0000       0.944704        25.7067 
  58   0.0000       0.981106        26.6972 
  59   0.0000       0.981117        26.6975 
  60   0.0000       1.082687        29.4614 
  61   0.0000       1.082690        29.4615 
  62   0.0000       1.120131        30.4803 
  63   0.0000       1.163095        31.6494 
  64   0.0000       1.163112        31.6499 
  65   0.0000       1.182814        32.1860 
  66   0.0000       1.247374        33.9428 
  67   0.0000       1.262243        34.3474 
  68   0.0000       1.262243        34.3474 
  69   0.0000       1.311060        35.6758 
  70   0.0000       1.311083        35.6764 
  71   0.0000       1.348513        36.6949 
  72   0.0000       1.464628        39.8546 
  73   0.0000       1.464655        39.8553 
  74   0.0000       1.707253        46.4567 
  75   0.0000       2.133554        58.0570 
  76   0.0000       2.177127        59.2426 
  77   0.0000       2.177161        59.2436 
  78   0.0000       2.203322        59.9554 
  79   0.0000       2.222631        60.4809 
  80   0.0000       2.225163        60.5498 
  81   0.0000       2.225188        60.5504 
  82   0.0000       2.335424        63.5501 
  83   0.0000       2.335456        63.5510 
  84   0.0000       2.442837        66.4730 
  85   0.0000       2.470830        67.2347 
  86   0.0000       2.470832        67.2348 
  87   0.0000       2.620434        71.3056 
  88   0.0000       2.620448        71.3060 
  89   0.0000       2.882744        78.4435 
  90   0.0000       2.933801        79.8328 
  91   0.0000       2.933836        79.8337 
  92   0.0000       2.961252        80.5798 
  93   0.0000       3.066418        83.4415 
  94   0.0000       3.192856        86.8820 
  95   0.0000       3.192899        86.8832 
  96   0.0000       3.241198        88.1975 
  97   0.0000       3.319803        90.3364 
  98   0.0000       3.319858        90.3379 
  99   0.0000       3.447597        93.8139 
 100   0.0000       3.447599        93.8139 
 101   0.0000       3.451409        93.9176 
 102   0.0000       3.653921        99.4282 
 103   0.0000       3.653947        99.4289 
 104   0.0000       3.718536       101.1865 
 105   0.0000       3.825999       104.1107 
 106   0.0000       3.950493       107.4984 
 107   0.0000       3.980661       108.3193 
 108   0.0000       3.980706       108.3205 
 109   0.0000       4.115858       111.9982 
 110   0.0000       4.115863       111.9983 
 111   0.0000       4.225706       114.9873 
 112   0.0000       4.319619       117.5428 
 113   0.0000       4.319672       117.5442 
 114   0.0000       5.406156       147.1090 
 115   0.0000       5.406187       147.1098 
 116   0.0000       5.524461       150.3282 
 117   0.0000       6.918673       188.2667 
 118   0.0000       6.918694       188.2672 
 119   0.0000       6.923007       188.3846 
 120   0.0000       6.931657       188.6200 
 121   0.0000       6.931680       188.6206 
 122   0.0000       6.938268       188.7999 
 123   0.0000       6.943677       188.9470 
 124   0.0000       6.943713       188.9480 
 125   0.0000       6.960211       189.3970 
 126   0.0000       7.067287       192.3107 
 127   0.0000       7.067366       192.3128 
 128   0.0000       7.173199       195.1927 
 129   0.0000       7.257473       197.4859 
 130   0.0000       7.257478       197.4860 
 131   0.0000       7.272977       197.9078 
 132   0.0000       7.482510       203.6094 
 133   0.0000       7.502574       204.1554 
 134   0.0000       7.612609       207.1496 
 135   0.0000       7.612627       207.1501 
 136   0.0000       7.791738       212.0240 
 137   0.0000       7.791813       212.0260 
 138   0.0000       8.531338       232.1495 
 139   0.0000       8.531356       232.1500 
 140   0.0000       8.594129       233.8581 
 141   0.0000       8.595481       233.8949 
 142   0.0000       8.628086       234.7822 
 143   0.0000       8.628158       234.7841 
 144   0.0000       8.841942       240.6015 
 145   0.0000       8.853084       240.9047 
 146   0.0000       8.853106       240.9053 
 147   0.0000       9.055462       246.4116 
 148   0.0000       9.126030       248.3319 
 149   0.0000       9.126079       248.3332 
 150   0.0000       9.270165       252.2540 
 151   0.0000       9.405569       255.9385 
 152   0.0000       9.405609       255.9396 
 153   0.0000      22.687940       617.3702 
 154   0.0000      57.378550      1561.3497 
 155   0.0000      57.378580      1561.3505 
 156   0.0000      57.468973      1563.8103 

                    ********************************
                    * MULLIKEN POPULATION ANALYSIS *
                    ********************************

--------------------------------------------
MULLIKEN ATOMIC CHARGES AND SPIN POPULATIONS
--------------------------------------------
   0 C :    0.571106    0.778628
   1 F :   -0.190301    0.073830
   2 F :   -0.190403    0.073771
   3 F :   -0.190403    0.073771
Sum of atomic charges         :   -0.0000000
Sum of atomic spin populations:    1.0000000

-----------------------------------------------------
MULLIKEN REDUCED ORBITAL CHARGES AND SPIN POPULATIONS
-----------------------------------------------------
CHARGE
  0 C s       :     3.184075  s :     3.184075
      pz      :     0.822249  p :     1.912287
      px      :     0.545017
      py      :     0.545021
      dz2     :     0.062170  d :     0.288633
      dxz     :     0.046177
      dyz     :     0.046184
      dx2y2   :     0.067048
      dxy     :     0.067053
      f0      :     0.001536  f :     0.043898
      f+1     :     0.007007
      f-1     :     0.007007
      f+2     :     0.007674
      f-2     :     0.007679
      f+3     :     0.003802
      f-3     :     0.009193
  1 F s       :     3.953364  s :     3.953364
      pz      :     1.715080  p :     5.227693
      px      :     1.583611
      py      :     1.929001
      dz2     :     0.000688  d :     0.008386
      dxz     :     0.005237
      dyz     :     0.001832
      dx2y2   :     0.004115
      dxy     :    -0.003486
      f0      :     0.000085  f :     0.000858
      f+1     :     0.000184
      f-1     :     0.000007
      f+2     :     0.000226
      f-2     :     0.000080
      f+3     :     0.000146
      f-3     :     0.000131
  2 F s       :     3.953424  s :     3.953424
      pz      :     1.715058  p :     5.227753
      px      :     1.842681
      py      :     1.670013
      dz2     :     0.000684  d :     0.008368
      dxz     :     0.002681
      dyz     :     0.004383
      dx2y2   :    -0.001587
      dxy     :     0.002206
      f0      :     0.000085  f :     0.000858
      f+1     :     0.000051
      f-1     :     0.000139
      f+2     :     0.000117
      f-2     :     0.000190
      f+3     :     0.000146
      f-3     :     0.000131
  3 F s       :     3.953424  s :     3.953424
      pz      :     1.715058  p :     5.227753
      px      :     1.842682
      py      :     1.670013
      dz2     :     0.000684  d :     0.008368
      dxz     :     0.002681
      dyz     :     0.004383
      dx2y2   :    -0.001587
      dxy     :     0.002206
      f0      :     0.000085  f :     0.000858
      f+1     :     0.000051
      f-1     :     0.000139
      f+2     :     0.000117
      f-2     :     0.000190
      f+3     :     0.000146
      f-3     :     0.000131

SPIN
  0 C s       :     0.278621  s :     0.278621
      pz      :     0.464957  p :     0.491261
      px      :     0.013139
      py      :     0.013165
      dz2     :     0.014157  d :     0.009471
      dxz     :    -0.001428
      dyz     :    -0.001428
      dx2y2   :    -0.000917
      dxy     :    -0.000914
      f0      :    -0.000008  f :    -0.000724
      f+1     :    -0.000308
      f-1     :    -0.000307
      f+2     :    -0.000212
      f-2     :    -0.000214
      f+3     :     0.000286
      f-3     :     0.000039
  1 F s       :     0.003125  s :     0.003125
      pz      :     0.073431  p :     0.069180
      px      :    -0.003015
      py      :    -0.001237
      dz2     :    -0.000163  d :     0.001497
      dxz     :     0.000983
      dyz     :    -0.000018
      dx2y2   :     0.000802
      dxy     :    -0.000107
      f0      :     0.000003  f :     0.000029
      f+1     :     0.000013
      f-1     :     0.000001
      f+2     :     0.000003
      f-2     :     0.000001
      f+3     :     0.000008
      f-3     :    -0.000001
  2 F s       :     0.003114  s :     0.003114
      pz      :     0.073381  p :     0.069128
      px      :    -0.001678
      py      :    -0.002575
      dz2     :    -0.000164  d :     0.001500
      dxz     :     0.000233
      dyz     :     0.000732
      dx2y2   :     0.000120
      dxy     :     0.000578
      f0      :     0.000003  f :     0.000029
      f+1     :     0.000004
      f-1     :     0.000010
      f+2     :     0.000002
      f-2     :     0.000002
      f+3     :     0.000008
      f-3     :    -0.000001
  3 F s       :     0.003114  s :     0.003114
      pz      :     0.073382  p :     0.069128
      px      :    -0.001678
      py      :    -0.002575
      dz2     :    -0.000164  d :     0.001500
      dxz     :     0.000233
      dyz     :     0.000732
      dx2y2   :     0.000120
      dxy     :     0.000578
      f0      :     0.000003  f :     0.000029
      f+1     :     0.000004
      f-1     :     0.000010
      f+2     :     0.000002
      f-2     :     0.000002
      f+3     :     0.000008
      f-3     :    -0.000001


                     *******************************
                     * LOEWDIN POPULATION ANALYSIS *
                     *******************************

-------------------------------------------
LOEWDIN ATOMIC CHARGES AND SPIN POPULATIONS
-------------------------------------------
   0 C :   -0.331044    0.626381
   1 F :    0.110347    0.124556
   2 F :    0.110348    0.124531
   3 F :    0.110348    0.124532

----------------------------------------------------
LOEWDIN REDUCED ORBITAL CHARGES AND SPIN POPULATIONS
----------------------------------------------------
CHARGE
  0 C s       :     2.712247  s :     2.712247
      pz      :     0.803890  p :     2.158663
      px      :     0.677375
      py      :     0.677398
      dz2     :     0.172003  d :     1.177198
      dxz     :     0.216024
      dyz     :     0.216031
      dx2y2   :     0.286570
      dxy     :     0.286571
      f0      :     0.016563  f :     0.282936
      f+1     :     0.034705
      f-1     :     0.034704
      f+2     :     0.056703
      f-2     :     0.056707
      f+3     :     0.033805
      f-3     :     0.049750
  1 F s       :     3.549930  s :     3.549930
      pz      :     1.663432  p :     5.095154
      px      :     1.642863
      py      :     1.788859
      dz2     :     0.042234  d :     0.242524
      dxz     :     0.067310
      dyz     :     0.012577
      dx2y2   :     0.043664
      dxy     :     0.076740
      f0      :     0.000174  f :     0.002045
      f+1     :     0.000531
      f-1     :     0.000004
      f+2     :     0.000491
      f-2     :     0.000186
      f+3     :     0.000302
      f-3     :     0.000359
  2 F s       :     3.549930  s :     3.549930
      pz      :     1.663444  p :     5.095159
      px      :     1.752357
      py      :     1.679358
      dz2     :     0.042233  d :     0.242518
      dxz     :     0.026259
      dyz     :     0.053625
      dx2y2   :     0.068469
      dxy     :     0.051932
      f0      :     0.000174  f :     0.002045
      f+1     :     0.000136
      f-1     :     0.000399
      f+2     :     0.000262
      f-2     :     0.000414
      f+3     :     0.000302
      f-3     :     0.000359
  3 F s       :     3.549930  s :     3.549930
      pz      :     1.663444  p :     5.095159
      px      :     1.752357
      py      :     1.679357
      dz2     :     0.042233  d :     0.242518
      dxz     :     0.026259
      dyz     :     0.053625
      dx2y2   :     0.068469
      dxy     :     0.051932
      f0      :     0.000174  f :     0.002045
      f+1     :     0.000136
      f-1     :     0.000399
      f+2     :     0.000262
      f-2     :     0.000414
      f+3     :     0.000302
      f-3     :     0.000359

SPIN
  0 C s       :     0.161332  s :     0.161332
      pz      :     0.397072  p :     0.408886
      px      :     0.005901
      py      :     0.005913
      dz2     :     0.056484  d :     0.047937
      dxz     :    -0.003623
      dyz     :    -0.003623
      dx2y2   :    -0.000652
      dxy     :    -0.000649
      f0      :     0.001938  f :     0.008225
      f+1     :    -0.000224
      f-1     :    -0.000224
      f+2     :    -0.000177
      f-2     :    -0.000178
      f+3     :     0.007088
      f-3     :     0.000003
  1 F s       :     0.014722  s :     0.014722
      pz      :     0.076644  p :     0.081737
      px      :     0.005724
      py      :    -0.000631
      dz2     :     0.011151  d :     0.027789
      dxz     :     0.015827
      dyz     :    -0.000212
      dx2y2   :     0.001030
      dxy     :    -0.000008
      f0      :     0.000004  f :     0.000309
      f+1     :     0.000246
      f-1     :     0.000001
      f+2     :     0.000025
      f-2     :     0.000001
      f+3     :     0.000029
      f-3     :     0.000002
  2 F s       :     0.014722  s :     0.014722
      pz      :     0.076611  p :     0.081711
      px      :     0.000960
      py      :     0.004140
      dz2     :     0.011151  d :     0.027790
      dxz     :     0.003798
      dyz     :     0.011818
      dx2y2   :     0.000252
      dxy     :     0.000771
      f0      :     0.000004  f :     0.000309
      f+1     :     0.000062
      f-1     :     0.000185
      f+2     :     0.000007
      f-2     :     0.000019
      f+3     :     0.000029
      f-3     :     0.000002
  3 F s       :     0.014722  s :     0.014722
      pz      :     0.076611  p :     0.081711
      px      :     0.000960
      py      :     0.004140
      dz2     :     0.011151  d :     0.027790
      dxz     :     0.003798
      dyz     :     0.011818
      dx2y2   :     0.000252
      dxy     :     0.000771
      f0      :     0.000004  f :     0.000309
      f+1     :     0.000062
      f-1     :     0.000185
      f+2     :     0.000007
      f-2     :     0.000019
      f+3     :     0.000029
      f-3     :     0.000002


                      *****************************
                      * MAYER POPULATION ANALYSIS *
                      *****************************

  NA   - Mulliken gross atomic population
  ZA   - Total nuclear charge
  QA   - Mulliken gross atomic charge
  VA   - Mayer's total valence
  BVA  - Mayer's bonded valence
  FA   - Mayer's free valence

  ATOM       NA         ZA         QA         VA         BVA        FA
  0 C      5.4289     6.0000     0.5711     3.7955     3.1813     0.6142
  1 F      9.1903     9.0000    -0.1903     1.0198     1.0155     0.0044
  2 F      9.1904     9.0000    -0.1904     1.0195     1.0151     0.0043
  3 F      9.1904     9.0000    -0.1904     1.0195     1.0151     0.0043

  Mayer bond orders larger than 0.100000
B(  0-C ,  1-F ) :   1.0606 B(  0-C ,  2-F ) :   1.0603 B(  0-C ,  3-F ) :   1.0603 


-------
TIMINGS
-------

Total SCF time: 0 days 0 hours 0 min 11 sec 

Total time                  ....      11.388 sec
Sum of individual times     ....      10.525 sec  ( 92.4%)

Fock matrix formation       ....       8.884 sec  ( 78.0%)
  Split-RI-J                ....       1.121 sec  ( 12.6% of F)
  Chain of spheres X        ....       2.908 sec  ( 32.7% of F)
  XC integration            ....       1.994 sec  ( 22.4% of F)
    Basis function eval.    ....       0.112 sec  (  5.6% of XC)
    Density eval.           ....       0.145 sec  (  7.3% of XC)
    XC-Functional eval.     ....       0.063 sec  (  3.1% of XC)
    XC-Potential eval.      ....       0.295 sec  ( 14.8% of XC)
Diagonalization             ....       0.333 sec  (  2.9%)
Density matrix formation    ....       0.015 sec  (  0.1%)
Population analysis         ....       0.163 sec  (  1.4%)
Initial guess               ....       0.138 sec  (  1.2%)
Orbital Transformation      ....       0.000 sec  (  0.0%)
Orbital Orthonormalization  ....       0.000 sec  (  0.0%)
DIIS solution               ....       0.411 sec  (  3.6%)
Grid generation             ....       0.581 sec  (  5.1%)

Maximum memory used throughout the entire SCF-calculation: 63.2 MB


-------------------------------------------------------------------------------
                          DFT DISPERSION CORRECTION                            
                                                                               
                              DFTD3 V3.1  Rev 1                                
                              USING zero damping                               
-------------------------------------------------------------------------------
The omegaB97X-D3 functional is recognized. Fit by Chai et al.
Active option DFTDOPT                   ...         3   

molecular C6(AA) [au] = 165.512302 


            DFT-D V3
 parameters
 s6 scaling factor         :     1.0000 
 rs6 scaling factor        :     1.2810 
 s8 scaling factor         :     1.0000 
 rs8 scaling factor        :     1.0940 
 Damping factor alpha6     :    14.0000 
 Damping factor alpha8     :    16.0000 
 ad hoc parameters k1-k3   :    16.0000     1.3333    -4.0000 

 Edisp/kcal,au: -0.026597162145  -0.000042385271 
 E6   /kcal   :  -0.003370140 
 E8   /kcal   :  -0.023227022 
 % E8         :  87.328949533 

-------------------------   ----------------
Dispersion correction           -0.000042385
-------------------------   ----------------


-------------------------   --------------------
FINAL SINGLE POINT ENERGY      -337.586543196590
-------------------------   --------------------



           ************************************************************
           *        Program running with 18 parallel MPI-processes    *
           *              working on a common directory               *
           ************************************************************
------------------------------------------------------------------------------
                         ORCA SCF GRADIENT CALCULATION
------------------------------------------------------------------------------

 ... reading COSX grid (gridx3)
Gradient of the Kohn-Sham DFT energy:
Kohn-Sham wavefunction type      ... UKS
Hartree-Fock exchange scaling    ...    0.196
Number of operators              ...    2
Number of atoms                  ...    4
Basis set dimensions             ...  157
Integral neglect threshold       ... 2.5e-11
Integral primitive cutoff        ... 2.5e-12
SHARK Integral package           ... ON

Nuc. rep. gradient       (SHARK) ... done (  0.0 sec)
HCore & Overlap gradient (SHARK) ... done (  0.0 sec)
RI-J gradient            (SHARK) ... done (  0.2 sec)
COSX-gradient                    ... done (  0.5 sec)
Exchange-correlation gradient    ... done
Dispersion correction            ... done

------------------
CARTESIAN GRADIENT
------------------

WARNING: THERE ARE 3 CONSTRAINED CARTESIAN COORDINATES
   1   C   :   -0.000230489   -0.000000147    0.121956158
   2   F   :   -0.070892576    0.000000039   -0.040849226
   3   F   :    0.035680234   -0.061290874   -0.040498393
   4   F   :    0.035680328    0.061290784   -0.040497943

Difference to translation invariance:
           :    0.0002374974   -0.0000001990    0.0001105953

Difference to rotation invariance:
           :   -0.0000009091    0.0001996092    0.0000003594

Norm of the cartesian gradient     ...    0.1868348835
RMS gradient                       ...    0.0539345851
MAX gradient                       ...    0.1219561577

-------
TIMINGS
-------

Total SCF gradient time            ...        1.235 sec

One electron gradient       ....       0.013 sec  (  1.0%)
RI-J Coulomb gradient       ....       0.198 sec  ( 16.0%)
COSX gradient               ....       0.460 sec  ( 37.3%)
XC gradient                 ....       0.185 sec  ( 15.0%)

Maximum memory used throughout the entire SCFGRAD-calculation: 37.2 MB
------------------------------------------------------------------------------
                         ORCA GEOMETRY RELAXATION STEP
------------------------------------------------------------------------------

Reading the OPT-File                    .... done
Getting information on internals        .... done
Copying old internal coords+grads       .... done
Making the new internal coordinates     .... (new redundants).... done
Validating the new internal coordinates .... (new redundants).... done
Calculating the B-matrix                .... done
Calculating the G,G- and P matrices     .... done
Transforming gradient to internals      .... done
Projecting the internal gradient        .... done
Number of atoms                         ....   4
Number of internal coordinates          ....   7
Current Energy                          ....  -337.586543197 Eh
Current gradient norm                   ....     0.186834883 Eh/bohr
Maximum allowed component of the step   ....  0.300
Current trust radius                    ....  0.300
Evaluating the initial hessian          ....  (Almloef) done
Projecting the Hessian                  .... done
Forming the augmented Hessian           .... done
Diagonalizing the augmented Hessian     .... done
Last element of RFO vector              ....  0.994442976
Lowest eigenvalues of augmented Hessian:
 -0.007762889  0.684895726  0.684895726  0.692658615 1000.000000000
Length of the computed step             ....  0.105864919
The final length of the internal step   ....  0.105864919
Converting the step to cartesian space:
 Initial RMS(Int)=    0.0400131784
Transforming coordinates:
 Iter   0:  RMS(Cart)=    0.0277395822 RMS(Int)=    0.0400131784
 Iter   1:  RMS(Cart)=    0.0000000001 RMS(Int)=    0.0000000001
Imposing constraints:
 Iter   0:  RMS(Cart)=    0.0000000013 RMS(Int)=    0.0000000016
CONVERGED
done
Storing new coordinates                 .... done

                                .--------------------.
          ----------------------|Geometry convergence|-------------------------
          Item                value                   Tolerance       Converged
          ---------------------------------------------------------------------
          RMS gradient        0.0277154727            0.0001000000      NO
          MAX gradient        0.0423547407            0.0003000000      NO
          RMS step            0.0400131784            0.0020000000      NO
          MAX step            0.0611480747            0.0040000000      NO
          ........................................................
          Max(Bonds)      0.0324      Max(Angles)    0.00
          Max(Dihed)        0.00      Max(Improp)    0.00
          ---------------------------------------------------------------------

The optimization has not yet converged - more geometry cycles are needed


    ---------------------------------------------------------------------------
                         Redundant Internal Coordinates
                            (Angstroem and degrees)

        Definition                    Value    dE/dq     Step     New-Value
    ----------------------------------------------------------------------------
     1. B(F   1,C   0)                1.3150 -0.042299  0.0323    1.3473   
     2. B(F   2,C   0)                1.3150 -0.042355  0.0324    1.3474   
     3. B(F   3,C   0)                1.3150 -0.042355  0.0324    1.3474   
     4. A(F   2,C   0,F   3)           98.50 -0.120807    0.00     98.50 C 
     5. A(F   1,C   0,F   2)           98.50 -0.055516   -0.00     98.50 C 
     6. A(F   1,C   0,F   3)           98.50 -0.055516    0.00     98.50 C 
     7. I(F   1,F   3,F   2,C   0)     76.91  0.102654   -0.00     76.91   
    ----------------------------------------------------------------------------

         *************************************************************
         *                GEOMETRY OPTIMIZATION CYCLE   2            *
         *************************************************************
---------------------------------
CARTESIAN COORDINATES (ANGSTROEM)
---------------------------------
  C      0.000013    0.000000    0.011754
  F      1.178587    0.000000   -0.641103
  F     -0.589300    1.020711   -0.641111
  F     -0.589300   -1.020711   -0.641111

----------------------------
CARTESIAN COORDINATES (A.U.)
----------------------------
  NO LB      ZA    FRAG     MASS         X           Y           Z
   0 C     6.0000    0    12.011    0.000025    0.000000    0.022212
   1 F     9.0000    0    18.998    2.227206    0.000000   -1.211510
   2 F     9.0000    0    18.998   -1.113615    1.928865   -1.211523
   3 F     9.0000    0    18.998   -1.113615   -1.928865   -1.211523

--------------------------------
INTERNAL COORDINATES (ANGSTROEM)
--------------------------------
 C      0   0   0     0.000000000000     0.00000000     0.00000000
 F      1   0   0     1.347315498007     0.00000000     0.00000000
 F      1   2   0     1.347358057891    98.49999993     0.00000000
 F      1   2   3     1.347358167496    98.49999993    99.98826212

---------------------------
INTERNAL COORDINATES (A.U.)
---------------------------
 C      0   0   0     0.000000000000     0.00000000     0.00000000
 F      1   0   0     2.546057307220     0.00000000     0.00000000
 F      1   2   0     2.546137733745    98.49999993     0.00000000
 F      1   2   3     2.546137940869    98.49999993    99.98826212



           ************************************************************
           *        Program running with 18 parallel MPI-processes    *
           *              working on a common directory               *
           ************************************************************
------------------------------------------------------------------------------
                   ___                                                        
                  /   \      - P O W E R E D   B Y -                         
                 /     \                                                     
                 |  |  |   _    _      __       _____    __    __             
                 |  |  |  | |  | |    /  \     |  _  \  |  |  /  |          
                  \  \/   | |  | |   /    \    | | | |  |  | /  /          
                 / \  \   | |__| |  /  /\  \   | |_| |  |  |/  /          
                |  |  |   |  __  | /  /__\  \  |    /   |      \           
                |  |  |   | |  | | |   __   |  |    \   |  |\   \          
                \     /   | |  | | |  |  |  |  | |\  \  |  | \   \       
                 \___/    |_|  |_| |__|  |__|  |_| \__\ |__|  \__/        
                                                                              
                      - O R C A' S   B I G   F R I E N D -                    
                                      &                                       
                       - I N T E G R A L  F E E D E R -                       
                                                                              
 v1 FN, 2020, v2 2021                                                         
------------------------------------------------------------------------------


Reading SHARK input file /beegfs/scratch/ispackman/PFAS_EPR_calcs/benchmark/JChemEd_CF3_radical/CF3_radical_98.5_degrees_IN-PROGRESS/CF3_radical_98.5_degrees.SHARKINP.tmp ... ok
----------------------
SHARK INTEGRAL PACKAGE
----------------------

Number of atoms                             ...      4
Number of basis functions                   ...    157
Number of shells                            ...     55
Maximum angular momentum                    ...      3
Integral batch strategy                     ... SHARK/LIBINT Hybrid
RI-J (if used) integral strategy            ... SPLIT-RIJ (Revised 2003 algorithm where possible)
Printlevel                                  ...      1
Contraction scheme used                     ... SEGMENTED contraction
Coulomb Range Separation                    ... NOT USED
Exchange Range Separation                   ... Long Range
   Mu parameter                             ...  0.250000
   Scaling (regular/separated)              ...  0.195728  0.804272
Finite Nucleus Model                        ... NOT USED
Auxiliary Coulomb fitting basis             ... AVAILABLE
   # of basis functions in Aux-J            ...    196
   # of shells in Aux-J                     ...     60
   Maximum angular momentum in Aux-J        ...      4
Auxiliary J/K fitting basis                 ... NOT available
Auxiliary Correlation fitting basis         ... NOT available
Auxiliary 'external' fitting basis          ... NOT available
Integral threshold                          ...     2.500000e-11
Primitive cut-off                           ...     2.500000e-12
Primitive pair pre-selection threshold      ...     2.500000e-12

Calculating pre-screening integrals         ... done (  0.0 sec) Dimension = 55
Organizing shell pair data                  ... done (  0.0 sec)
Shell pair information
Total number of shell pairs                 ...      1540
Shell pairs after pre-screening             ...      1510
Total number of primitive shell pairs       ...      4274
Primitive shell pairs kept                  ...      3575
          la=0 lb=0:    282 shell pairs
          la=1 lb=0:    360 shell pairs
          la=1 lb=1:    120 shell pairs
          la=2 lb=0:    276 shell pairs
          la=2 lb=1:    180 shell pairs
          la=2 lb=2:     78 shell pairs
          la=3 lb=0:     96 shell pairs
          la=3 lb=1:     60 shell pairs
          la=3 lb=2:     48 shell pairs
          la=3 lb=3:     10 shell pairs

Calculating one electron integrals          ... done (  0.0 sec)
Calculating RI/J V-Matrix + Cholesky decomp.... done (  0.0 sec)
Calculating Nuclear repulsion               ... done (  0.0 sec) ENN=    126.617528324619 Eh

SHARK setup successfully completed in   0.3 seconds

Maximum memory used throughout the entire GTOINT-calculation: 15.2 MB


           ************************************************************
           *        Program running with 18 parallel MPI-processes    *
           *              working on a common directory               *
           ************************************************************

Diagonalization of the overlap matrix:
Smallest eigenvalue                        ... 4.058e-04
Time for diagonalization                   ...    0.008 sec
Threshold for overlap eigenvalues          ... 1.000e-08
Number of eigenvalues below threshold      ... 0
Time for construction of square roots      ...    0.018 sec
Total time needed                          ...    0.027 sec

-------------------
DFT GRID GENERATION
-------------------

General Integration Accuracy     IntAcc      ... 4.388
Radial Grid Type                 RadialGrid  ... OptM3 with GC (2021)
Angular Grid (max. ang.)         AngularGrid ... 4 (Lebedev-302)
Angular grid pruning method      GridPruning ... 4 (adaptive)
Weight generation scheme         WeightScheme... Becke
Basis function cutoff            BFCut       ... 1.0000e-11
Integration weight cutoff        WCut        ... 1.0000e-14
Angular grids for H and He will be reduced by one unit
Partially contracted basis set               ... off
Rotationally invariant grid construction     ... off

Total number of grid points                  ...    25780
Total number of batches                      ...      406
Average number of points per batch           ...       63
Average number of grid points per atom       ...     6445
Time for grid setup =    0.161 sec

--------------------
COSX GRID GENERATION
--------------------

GRIDX 1
-------
General Integration Accuracy     IntAcc      ... 3.816
Radial Grid Type                 RadialGrid  ... OptM3 with GC (2021)
Angular Grid (max. ang.)         AngularGrid ... 1 (Lebedev-50)
Angular grid pruning method      GridPruning ... 4 (adaptive)
Weight generation scheme         WeightScheme... Becke
Basis function cutoff            BFCut       ... 1.0000e-11
Integration weight cutoff        WCut        ... 1.0000e-14
Angular grids for H and He will be reduced by one unit
Partially contracted basis set               ... on
Rotationally invariant grid construction     ... off

Total number of grid points                  ...     3274
Total number of batches                      ...       53
Average number of points per batch           ...       61
Average number of grid points per atom       ...      818
UseSFitting                                  ... on

GRIDX 2
-------
General Integration Accuracy     IntAcc      ... 4.020
Radial Grid Type                 RadialGrid  ... OptM3 with GC (2021)
Angular Grid (max. ang.)         AngularGrid ... 2 (Lebedev-110)
Angular grid pruning method      GridPruning ... 4 (adaptive)
Weight generation scheme         WeightScheme... Becke
Basis function cutoff            BFCut       ... 1.0000e-11
Integration weight cutoff        WCut        ... 1.0000e-14
Angular grids for H and He will be reduced by one unit
Partially contracted basis set               ... on
Rotationally invariant grid construction     ... off

Total number of grid points                  ...     9128
Total number of batches                      ...      143
Average number of points per batch           ...       63
Average number of grid points per atom       ...     2282
UseSFitting                                  ... on

GRIDX 3
-------
General Integration Accuracy     IntAcc      ... 4.338
Radial Grid Type                 RadialGrid  ... OptM3 with GC (2021)
Angular Grid (max. ang.)         AngularGrid ... 3 (Lebedev-194)
Angular grid pruning method      GridPruning ... 4 (adaptive)
Weight generation scheme         WeightScheme... Becke
Basis function cutoff            BFCut       ... 1.0000e-11
Integration weight cutoff        WCut        ... 1.0000e-14
Angular grids for H and He will be reduced by one unit
Partially contracted basis set               ... on
Rotationally invariant grid construction     ... off

Total number of grid points                  ...    19687
Total number of batches                      ...      309
Average number of points per batch           ...       63
Average number of grid points per atom       ...     4922
UseSFitting                                  ... on

Time for X-Grid setup             =    0.317 sec

--------------
SCF ITERATIONS
[...]
  VA   - Mayer's total valence
  BVA  - Mayer's bonded valence
  FA   - Mayer's free valence

  ATOM       NA         ZA         QA         VA         BVA        FA
  0 C      5.4634     6.0000     0.5366     3.7801     3.1782     0.6019
  1 F      9.1788     9.0000    -0.1788     1.0325     1.0273     0.0053
  2 F      9.1789     9.0000    -0.1789     1.0321     1.0269     0.0053
  3 F      9.1789     9.0000    -0.1789     1.0321     1.0269     0.0053

  Mayer bond orders larger than 0.100000
B(  0-C ,  1-F ) :   1.0596 B(  0-C ,  2-F ) :   1.0593 B(  0-C ,  3-F ) :   1.0593 


-------
TIMINGS
-------

Total SCF time: 0 days 0 hours 0 min 4 sec 

Total time                  ....       4.371 sec
Sum of individual times     ....       3.785 sec  ( 86.6%)

Fock matrix formation       ....       3.005 sec  ( 68.7%)
  Split-RI-J                ....       0.487 sec  ( 16.2% of F)
  Chain of spheres X        ....       1.329 sec  ( 44.2% of F)
  XC integration            ....       0.520 sec  ( 17.3% of F)
    Basis function eval.    ....       0.037 sec  (  7.1% of XC)
    Density eval.           ....       0.046 sec  (  8.9% of XC)
    XC-Functional eval.     ....       0.020 sec  (  3.8% of XC)
    XC-Potential eval.      ....       0.061 sec  ( 11.7% of XC)
Diagonalization             ....       0.100 sec  (  2.3%)
Density matrix formation    ....       0.015 sec  (  0.3%)
Population analysis         ....       0.129 sec  (  2.9%)
Initial guess               ....       0.016 sec  (  0.4%)
Orbital Transformation      ....       0.000 sec  (  0.0%)
Orbital Orthonormalization  ....       0.009 sec  (  0.2%)
DIIS solution               ....       0.043 sec  (  1.0%)
Grid generation             ....       0.478 sec  ( 10.9%)

Maximum memory used throughout the entire SCF-calculation: 63.2 MB


-------------------------------------------------------------------------------
                          DFT DISPERSION CORRECTION                            
                                                                               
                              DFTD3 V3.1  Rev 1                                
                              USING zero damping                               
-------------------------------------------------------------------------------
The omegaB97X-D3 functional is recognized. Fit by Chai et al.
Active option DFTDOPT                   ...         3   

molecular C6(AA) [au] = 165.612759 


            DFT-D V3
 parameters
 s6 scaling factor         :     1.0000 
 rs6 scaling factor        :     1.2810 
 s8 scaling factor         :     1.0000 
 rs8 scaling factor        :     1.0940 
 Damping factor alpha6     :    14.0000 
 Damping factor alpha8     :    16.0000 
 ad hoc parameters k1-k3   :    16.0000     1.3333    -4.0000 

 Edisp/kcal,au: -0.033313569413  -0.000053088546 
 E6   /kcal   :  -0.004228139 
 E8   /kcal   :  -0.029085430 
 % E8         :  87.308057807 

-------------------------   ----------------
Dispersion correction           -0.000053089
-------------------------   ----------------


-------------------------   --------------------
FINAL SINGLE POINT ENERGY      -337.590805332367
-------------------------   --------------------

                                *** OPTIMIZATION RUN DONE ***

                            ***************************************
                            *     ORCA property calculations      *
                            ***************************************

                                    ---------------------
                                    Active property flags
                                    ---------------------
   (+) Dipole Moment


------------------------------------------------------------------------------
                       ORCA ELECTRIC PROPERTIES CALCULATION
------------------------------------------------------------------------------

Dipole Moment Calculation                       ... on
Quadrupole Moment Calculation                   ... off
Polarizability Calculation                      ... off
GBWName                                         ... /beegfs/scratch/ispackman/PFAS_EPR_calcs/benchmark/JChemEd_CF3_radical/CF3_radical_98.5_degrees_IN-PROGRESS/CF3_radical_98.5_degrees.gbw
Electron density                                ... /beegfs/scratch/ispackman/PFAS_EPR_calcs/benchmark/JChemEd_CF3_radical/CF3_radical_98.5_degrees_IN-PROGRESS/CF3_radical_98.5_degrees.scfp
The origin for moment calculation is the CENTER OF MASS  = (-0.000003, -0.000000 -0.997151)

-------------
DIPOLE MOMENT
-------------
                                X             Y             Z
Electronic contribution:      0.00006      -0.00000       0.13994
Nuclear contribution   :      0.00001       0.00000       0.31713
                        -----------------------------------------
Total Dipole Moment    :      0.00007      -0.00000       0.45707
                        -----------------------------------------
Magnitude (a.u.)       :      0.45707
Magnitude (Debye)      :      1.16179



--------------------
Rotational spectrum 
--------------------
 
Rotational constants in cm-1:     0.381701     0.381682     0.211231 
Rotational constants in MHz : 11443.119286 11442.553140  6332.557467 

 Dipole components along the rotational axes: 
x,y,z [a.u.] :     0.000000     0.000079     0.457075 
x,y,z [Debye]:     0.000001     0.000201     1.161792 

 


           ************************************************************
           *        Program running with 18 parallel MPI-processes    *
           *              working on a common directory               *
           ************************************************************

-------------------------------------------------------------------------------
                               ORCA SCF HESSIAN
-------------------------------------------------------------------------------

                   --------- SHARK INITIALIZATION DONE ---------

Hessian of the Kohn-Sham DFT energy:
Kohn-Sham wavefunction type                      ... UKS
Hartree-Fock exchange scaling                    ...    0.196
Number of operators                              ...    2
Number of atoms                                  ...    4
Basis set dimensions                             ...  157
Integral neglect threshold                       ... 2.5e-11
Integral primitive cutoff                        ... 2.5e-12

Setting up DFT Hessian calculations              ... 

HESS GRID
---------

General Integration Accuracy     IntAcc      ... 4.629
Radial Grid Type                 RadialGrid  ... OptM3 with GC (2021)
Angular Grid (max. ang.)         AngularGrid ... 5 (Lebedev-434)
Angular grid pruning method      GridPruning ... 4 (adaptive)
Weight generation scheme         WeightScheme... Becke
Basis function cutoff            BFCut       ... 1.0000e-11
Integration weight cutoff        WCut        ... 1.0000e-14
Angular grids for H and He will be reduced by one unit
Partially contracted basis set               ... off
Rotationally invariant grid construction     ... off

Total number of grid points                  ...    39981
Total number of batches                      ...      627
Average number of points per batch           ...       63
Average number of grid points per atom       ...     9995

Building densities                               ... done   (      0.0 sec)
Calculating rho(r) on the grid                   ... done   (      0.1 sec)
Building xc-kernel on the grid                   ... done   (      0.1 sec)
                                                     done   (      0.6 sec)

Nuclear repulsion Hessian  (SHARK)               ... done   (      0.0 sec)

----------------------------------------------
Forming right-hand sides of CP-SCF equations     ...
----------------------------------------------
One electron integral derivatives  (SHARK)       ... done   (      0.0 sec)
Transforming the overlap derivative matrices     ... done   (      0.0 sec)
Making the Q(x) pseudodensities                  ... done   (      0.0 sec)
Adding the E*S(x)*S(y) terms to the Hessian      ... done   (      0.0 sec)
Calculating energy weighted overlap derivatives  ... done   (      0.0 sec)
Two electron integral derivatives (SHARK-RI)     ... done   (      2.5 sec)
Exchange-correlation integral derivatives        ... done   (      2.5 sec)
tr(F(y)Q(x)) contribution to the Hessian         ... done   (      0.0 sec)
Response fock operator R(S(x)) (SHARK-RIJCOSX)   ... done   (      0.9 sec)
XC Response fock operator R(S(x))                ... done   (      0.5 sec)
tr(F(y)S(x)) contribution to the Hessian         ... done   (      0.0 sec)
Transforming and finalizing RHSs                 ... done   (      0.1 sec)

----------------------------------------------
Solving the CP-SCF equations (RIJCOSX)           ...
----------------------------------------------
     CP-SCF ITERATION   0:   1.6051e-01 (   0.5 sec   0/ 12 done)
     CP-SCF ITERATION   1:   5.5598e-02 (   0.5 sec   0/ 12 done)
     CP-SCF ITERATION   2:   2.1492e-02 (   0.5 sec   0/ 12 done)
     CP-SCF ITERATION   3:   6.3548e-03 (   0.5 sec   0/ 12 done)
     CP-SCF ITERATION   4:   2.3674e-03 (   0.4 sec   0/ 12 done)
     CP-SCF ITERATION   5:   9.9832e-04 (   0.4 sec   1/ 12 done)
     CP-SCF ITERATION   6:   3.1640e-04 (   0.4 sec   2/ 12 done)
     CP-SCF ITERATION   7:   7.8974e-05 (   0.4 sec  12/ 12 done)
                    *** THE CP-SCF HAS CONVERGED ***

                                                 ... done   (      3.9 sec)
Forming perturbed density Hessian contributions  ... done   (      0.0 sec)
2nd integral derivative contribs (SHARK-RI)      ... done   (      6.7 sec)
Exchange-correlation Hessian                     ... done   (      0.9 sec)
Dispersion correction in the Hessian             ... done   (      0.1 sec)
Dipole derivatives                               ... (center of mass: -0.000003, -0.000000 -0.997151)done   (      0.1 sec)

Total SCF Hessian time: 0 days 0 hours 0 min 19 sec 

Writing the Hessian file to the disk             ... done


Maximum memory used throughout the entire SCFHESS-calculation: 145.9 MB

-----------------------
VIBRATIONAL FREQUENCIES
-----------------------

Scaling factor for frequencies =  1.000000000  (already applied!)

   0:         0.00 cm**-1
   1:         0.00 cm**-1
   2:         0.00 cm**-1
   3:         0.00 cm**-1
   4:         0.00 cm**-1
   5:         0.00 cm**-1
   6:       588.56 cm**-1
   7:       589.60 cm**-1
   8:       788.61 cm**-1
   9:      1036.67 cm**-1
  10:      1036.89 cm**-1
  11:      1082.51 cm**-1


------------
NORMAL MODES
------------

These modes are the Cartesian displacements weighted by the diagonal matrix
M(i,i)=1/sqrt(m[i]) where m[i] is the mass of the displaced atom
Thus, these vectors are normalized but *not* orthogonal

                  0          1          2          3          4          5    
      0       0.000000   0.000000   0.000000   0.000000   0.000000   0.000000
      1       0.000000   0.000000   0.000000   0.000000   0.000000   0.000000
      2       0.000000   0.000000   0.000000   0.000000   0.000000   0.000000
      3       0.000000   0.000000   0.000000   0.000000   0.000000   0.000000
      4       0.000000   0.000000   0.000000   0.000000   0.000000   0.000000
      5       0.000000   0.000000   0.000000   0.000000   0.000000   0.000000
      6       0.000000   0.000000   0.000000   0.000000   0.000000   0.000000
      7       0.000000   0.000000   0.000000   0.000000   0.000000   0.000000
      8       0.000000   0.000000   0.000000   0.000000   0.000000   0.000000
      9       0.000000   0.000000   0.000000   0.000000   0.000000   0.000000
     10       0.000000   0.000000   0.000000   0.000000   0.000000   0.000000
     11       0.000000   0.000000   0.000000   0.000000   0.000000   0.000000
                  6          7          8          9         10         11    
      0       0.296629   0.000042   0.000300  -0.001475  -0.881913  -0.001384
      1       0.000042  -0.295955   0.000000  -0.882039   0.001475   0.000004
      2       0.000876  -0.000000   0.578431  -0.000001   0.001621  -0.830738
      3       0.482283   0.000069  -0.455942   0.000536   0.321335  -0.269081
      4      -0.000087   0.608144   0.000000   0.050807  -0.000085  -0.000000
      5       0.069073   0.000010  -0.121837  -0.000344  -0.206245   0.174753
      6      -0.334977   0.472591   0.227877  -0.116784   0.118312   0.134978
      7      -0.473198  -0.210585  -0.393128   0.253223  -0.117621  -0.233539
      8      -0.034805  -0.059841  -0.121931  -0.178167   0.102909   0.175231
      9      -0.334842  -0.472687   0.227876   0.117180   0.117921   0.134977
     10       0.473258  -0.210449   0.393128   0.253617   0.116774   0.233537
     11      -0.034822   0.059832  -0.121931   0.178512   0.102312   0.175229


-----------
IR SPECTRUM
-----------

 Mode   freq       eps      Int      T**2         TX        TY        TZ
       cm**-1   L/(mol*cm) km/mol    a.u.
----------------------------------------------------------------------------
  6:    588.56   0.000297    1.50  0.000157  ( 0.012544  0.000002  0.000063)
  7:    589.60   0.000291    1.47  0.000154  ( 0.000002 -0.012417 -0.000000)
  8:    788.61   0.002783   14.07  0.001101  ( 0.000101 -0.000000  0.033188)
  9:   1036.67   0.058989  298.11  0.017757  (-0.000223 -0.133256 -0.000000)
 10:   1036.89   0.059027  298.30  0.017765  (-0.133285  0.000223  0.000096)
 11:   1082.51   0.009046   45.71  0.002608  (-0.000168  0.000001 -0.051065)

* The epsilon (eps) is given for a Dirac delta lineshape.
** The dipole moment derivative (T) already includes vibrational overlap.

The first frequency considered to be a vibration is 6
The total number of vibrations considered is 6


--------------------------
THERMOCHEMISTRY AT 298.15K
--------------------------

Temperature         ... 298.15 K
Pressure            ... 1.00 atm
Total Mass          ... 69.00 AMU

Throughout the following assumptions are being made:
  (1) The electronic state is orbitally nondegenerate
      but the spin degeneracy is treated
  (2) There are no thermally accessible electronically excited states
  (3) Hindered rotations indicated by low frequency modes are not
      treated as such but are treated as vibrations and this may
      cause some error
  (4) All equations used are the standard statistical mechanics
      equations for an ideal gas
  (5) All vibrations are strictly harmonic

freq.     588.56  E(vib)   ...       0.10 
freq.     589.60  E(vib)   ...       0.10 
freq.     788.61  E(vib)   ...       0.05 
freq.    1036.67  E(vib)   ...       0.02 
freq.    1036.89  E(vib)   ...       0.02 
freq.    1082.51  E(vib)   ...       0.02 

------------
INNER ENERGY
------------

The inner energy is: U= E(el) + E(ZPE) + E(vib) + E(rot) + E(trans)
    E(el)   - is the total energy from the electronic structure calculation
              = E(kin-el) + E(nuc-el) + E(el-el) + E(nuc-nuc)
    E(ZPE)  - the the zero temperature vibrational energy from the frequency calculation
    E(vib)  - the the finite temperature correction to E(ZPE) due to population
              of excited vibrational states
    E(rot)  - is the rotational thermal energy
    E(trans)- is the translational thermal energy

Summary of contributions to the inner energy U:
Electronic energy                ...   -337.59080533 Eh
Zero point energy                ...      0.01167069 Eh       7.32 kcal/mol
Thermal vibrational correction   ...      0.00050454 Eh       0.32 kcal/mol
Thermal rotational correction    ...      0.00141627 Eh       0.89 kcal/mol
Thermal translational correction ...      0.00141627 Eh       0.89 kcal/mol
-----------------------------------------------------------------------
Total thermal energy                   -337.57579756 Eh


Summary of corrections to the electronic energy:
(perhaps to be used in another calculation)
Total thermal correction                  0.00333708 Eh       2.09 kcal/mol
Non-thermal (ZPE) correction              0.01167069 Eh       7.32 kcal/mol
-----------------------------------------------------------------------
Total correction                          0.01500777 Eh       9.42 kcal/mol


--------
ENTHALPY
--------

The enthalpy is H = U + kB*T
                kB is Boltzmann's constant
Total free energy                 ...   -337.57579756 Eh 
Thermal Enthalpy correction       ...      0.00094421 Eh       0.59 kcal/mol
-----------------------------------------------------------------------
Total Enthalpy                    ...   -337.57485335 Eh


Note: Rotational entropy computed according to Herzberg 
Infrared and Raman Spectra, Chapter V,1, Van Nostrand Reinhold, 1945 
Point Group:  C3v, Symmetry Number:   3  
Rotational constants in cm-1:     0.381701     0.381682     0.211231 

Vibrational entropy computed according to the QRRHO of S. Grimme
Chem.Eur.J. 2012 18 9955


-------
ENTROPY
-------

The entropy contributions are T*S = T*(S(el)+S(vib)+S(rot)+S(trans))
     S(el)   - electronic entropy
     S(vib)  - vibrational entropy
     S(rot)  - rotational entropy
     S(trans)- translational entropy
The entropies will be listed as multiplied by the temperature to get
units of energy

Electronic entropy                ...      0.00065446 Eh      0.41 kcal/mol
Vibrational entropy               ...      0.00065758 Eh      0.41 kcal/mol
Rotational entropy                ...      0.01011691 Eh      6.35 kcal/mol
Translational entropy             ...      0.01834582 Eh     11.51 kcal/mol
-----------------------------------------------------------------------
Final entropy term                ...      0.02977477 Eh     18.68 kcal/mol

In case the symmetry of your molecule has not been determined correctly
or in case you have a reason to use a different symmetry number we print 
out the resulting rotational entropy values for sn=1,12 :
 --------------------------------------------------------
|  sn= 1 | S(rot)=       0.01115420 Eh      7.00 kcal/mol|
|  sn= 2 | S(rot)=       0.01049974 Eh      6.59 kcal/mol|
|  sn= 3 | S(rot)=       0.01011691 Eh      6.35 kcal/mol|
|  sn= 4 | S(rot)=       0.00984528 Eh      6.18 kcal/mol|
|  sn= 5 | S(rot)=       0.00963460 Eh      6.05 kcal/mol|
|  sn= 6 | S(rot)=       0.00946245 Eh      5.94 kcal/mol|
|  sn= 7 | S(rot)=       0.00931691 Eh      5.85 kcal/mol|
|  sn= 8 | S(rot)=       0.00919083 Eh      5.77 kcal/mol|
|  sn= 9 | S(rot)=       0.00907962 Eh      5.70 kcal/mol|
|  sn=10 | S(rot)=       0.00898014 Eh      5.64 kcal/mol|
|  sn=11 | S(rot)=       0.00889015 Eh      5.58 kcal/mol|
|  sn=12 | S(rot)=       0.00880800 Eh      5.53 kcal/mol|
 --------------------------------------------------------


-------------------
GIBBS FREE ENERGY
-------------------

The Gibbs free energy is G = H - T*S

Total enthalpy                    ...   -337.57485335 Eh 
Total entropy correction          ...     -0.02977477 Eh    -18.68 kcal/mol
-----------------------------------------------------------------------
Final Gibbs free energy         ...   -337.60462812 Eh

For completeness - the Gibbs free energy minus the electronic energy
G-E(el)                           ...     -0.01382279 Eh     -8.67 kcal/mol


Timings for individual modules:

Sum of individual times         ...      102.084 sec (=   1.701 min)
GTO integral calculation        ...       13.224 sec (=   0.220 min)  13.0 %
SCF iterations                  ...       52.570 sec (=   0.876 min)  51.5 %
SCF Gradient evaluation         ...       14.254 sec (=   0.238 min)  14.0 %
Geometry relaxation             ...        0.208 sec (=   0.003 min)   0.2 %
Analytical frequency calculation...       21.827 sec (=   0.364 min)  21.4 %
                             ****ORCA TERMINATED NORMALLY****
TOTAL RUN TIME: 0 days 0 hours 1 minutes 55 seconds 685 msec

slurmID:    32260088
totalRuntime[s]:    115.722771439
