
                                 *****************
                                 * O   R   C   A *
                                 *****************

                                            #,                                       
                                            ###                                      
                                            ####                                     
                                            #####                                    
                                            ######                                   
                                           ########,                                 
                                     ,,################,,,,,                         
                               ,,#################################,,                 
                          ,,##########################################,,             
                       ,#########################################, ''#####,          
                    ,#############################################,,   '####,        
                  ,##################################################,,,,####,       
                ,###########''''           ''''###############################       
              ,#####''   ,,,,##########,,,,          '''####'''          '####       
            ,##' ,,,,###########################,,,                        '##       
           ' ,,###''''                  '''############,,,                           
         ,,##''                                '''############,,,,        ,,,,,,###''
      ,#''                                            '''#######################'''  
     '                                                          ''''####''''         
             ,#######,   #######,   ,#######,      ##                                
            ,#'     '#,  ##    ##  ,#'     '#,    #''#        ######   ,####,        
            ##       ##  ##   ,#'  ##            #'  '#       #        #'  '#        
            ##       ##  #######   ##           ,######,      #####,   #    #        
            '#,     ,#'  ##    ##  '#,     ,#' ,#      #,         ##   #,  ,#        
             '#######'   ##     ##  '#######'  #'      '#     #####' # '####'        



                  #######################################################
                  #                        -***-                        #
                  #          Department of theory and spectroscopy      #
                  #    Directorship and core code : Frank Neese         #
                  #        Max Planck Institute fuer Kohlenforschung    #
                  #                Kaiser Wilhelm Platz 1               #
                  #                 D-45470 Muelheim/Ruhr               #
                  #                      Germany                        #
                  #                                                     #
                  #                  All rights reserved                #
                  #                        -***-                        #
                  #######################################################


                         Program Version 5.0.4 -  RELEASE  -


 With contributions from (in alphabetic order):
   Daniel Aravena         : Magnetic Suceptibility
   Michael Atanasov       : Ab Initio Ligand Field Theory (pilot matlab implementation)
   Alexander A. Auer      : GIAO ZORA, VPT2 properties, NMR spectrum
   Ute Becker             : Parallelization
   Giovanni Bistoni       : ED, misc. LED, open-shell LED, HFLD
   Martin Brehm           : Molecular dynamics
   Dmytro Bykov           : SCF Hessian
   Vijay G. Chilkuri      : MRCI spin determinant printing, contributions to CSF-ICE
   Dipayan Datta          : RHF DLPNO-CCSD density
   Achintya Kumar Dutta   : EOM-CC, STEOM-CC
   Dmitry Ganyushin       : Spin-Orbit,Spin-Spin,Magnetic field MRCI
   Miquel Garcia          : C-PCM and meta-GGA Hessian, CC/C-PCM, Gaussian charge scheme
   Yang Guo               : DLPNO-NEVPT2, F12-NEVPT2, CIM, IAO-localization
   Andreas Hansen         : Spin unrestricted coupled pair/coupled cluster methods
   Benjamin Helmich-Paris : MC-RPA, TRAH-SCF, COSX integrals
   Lee Huntington         : MR-EOM, pCC
   Robert Izsak           : Overlap fitted RIJCOSX, COSX-SCS-MP3, EOM
   Marcus Kettner         : VPT2
   Christian Kollmar      : KDIIS, OOCD, Brueckner-CCSD(T), CCSD density, CASPT2, CASPT2-K
   Simone Kossmann        : Meta GGA functionals, TD-DFT gradient, OOMP2, MP2 Hessian
   Martin Krupicka        : Initial AUTO-CI
   Lucas Lang             : DCDCAS
   Marvin Lechner         : AUTO-CI (C++ implementation), FIC-MRCC
   Dagmar Lenk            : GEPOL surface, SMD
   Dimitrios Liakos       : Extrapolation schemes; Compound Job, initial MDCI parallelization
   Dimitrios Manganas     : Further ROCIS development; embedding schemes
   Dimitrios Pantazis     : SARC Basis sets
   Anastasios Papadopoulos: AUTO-CI, single reference methods and gradients
   Taras Petrenko         : DFT Hessian,TD-DFT gradient, ASA, ECA, R-Raman, ABS, FL, XAS/XES, NRVS
   Peter Pinski           : DLPNO-MP2, DLPNO-MP2 Gradient
   Christoph Reimann      : Effective Core Potentials
   Marius Retegan         : Local ZFS, SOC
   Christoph Riplinger    : Optimizer, TS searches, QM/MM, DLPNO-CCSD(T), (RO)-DLPNO pert. Triples
   Tobias Risthaus        : Range-separated hybrids, TD-DFT gradient, RPA, STAB
   Michael Roemelt        : Original ROCIS implementation
   Masaaki Saitow         : Open-shell DLPNO-CCSD energy and density
   Barbara Sandhoefer     : DKH picture change effects
   Avijit Sen             : IP-ROCIS
   Kantharuban Sivalingam : CASSCF convergence, NEVPT2, FIC-MRCI
   Bernardo de Souza      : ESD, SOC TD-DFT
   Georgi Stoychev        : AutoAux, RI-MP2 NMR, DLPNO-MP2 response
   Willem Van den Heuvel  : Paramagnetic NMR
   Boris Wezisla          : Elementary symmetry handling
   Frank Wennmohs         : Technical directorship


 We gratefully acknowledge several colleagues who have allowed us to
 interface, adapt or use parts of their codes:
   Stefan Grimme, W. Hujo, H. Kruse, P. Pracht,  : VdW corrections, initial TS optimization,
                  C. Bannwarth, S. Ehlert          DFT functionals, gCP, sTDA/sTD-DF
   Ed Valeev, F. Pavosevic, A. Kumar             : LibInt (2-el integral package), F12 methods
   Garnet Chan, S. Sharma, J. Yang, R. Olivares  : DMRG
   Ulf Ekstrom                                   : XCFun DFT Library
   Mihaly Kallay                                 : mrcc  (arbitrary order and MRCC methods)
   Jiri Pittner, Ondrej Demel                    : Mk-CCSD
   Frank Weinhold                                : gennbo (NPA and NBO analysis)
   Christopher J. Cramer and Donald G. Truhlar   : smd solvation model
   Lars Goerigk                                  : TD-DFT with DH, B97 family of functionals
   V. Asgeirsson, H. Jonsson                     : NEB implementation
   FAccTs GmbH                                   : IRC, NEB, NEB-TS, DLPNO-Multilevel, CI-OPT
                                                   MM, QMMM, 2- and 3-layer-ONIOM, Crystal-QMMM,
                                                   LR-CPCM, SF, NACMEs, symmetry and pop. for TD-DFT,
                                                   nearIR, NL-DFT gradient (VV10), updates on ESD,
                                                   ML-optimized integration grids
   S Lehtola, MJT Oliveira, MAL Marques          : LibXC Library
   Liviu Ungur et al                             : ANISO software


 Your calculation uses the libint2 library for the computation of 2-el integrals
 For citations please refer to: http://libint.valeyev.net

 Your ORCA version has been built with support for libXC version: 5.1.0
 For citations please refer to: https://tddft.org/programs/libxc/

 This ORCA versions uses:
   CBLAS   interface :  Fast vector & matrix operations
   LAPACKE interface :  Fast linear algebra routines
   SCALAPACK package :  Parallel linear algebra routines
   Shared memory     :  Shared parallel matrices
   BLAS/LAPACK       :  OpenBLAS 0.3.15  USE64BITINT DYNAMIC_ARCH NO_AFFINITY SkylakeX SINGLE_THREADED
        Core in use  :  SkylakeX
   Copyright (c) 2011-2014, The OpenBLAS Project


Your calculation utilizes the atom-pairwise dispersion correction
with the zero-damping scheme (D30)
Cite in your paper:
S.Grimme, J.Antony, S.Ehrlich and H.Krieg, J.Chem.Phys., 132, (2010), 154104 
   

XCFun DFT library Copyright 2009-2010 Ulf Ekstrom and contributors.
See http://admol.org/xcfun for more information.
This is free software; see the source code for copying conditions.
There is ABSOLUTELY NO WARRANTY; not even for MERCHANTABILITY or FITNESS FOR A PARTICULAR PURPOSE.
For details see the documentation.
Scientific users of this library should cite U. Ekstrom, L. Visscher, R. Bast, A. J. Thorvaldsen and K. Ruud;
J.Chem.Theor.Comp. 2010, DOI: 10.1021/ct100117s
XCFun Version 0.99 

================================================================================

----- Orbital basis set information -----
Your calculation utilizes the basis: def2-TZVPD
   F. Weigend and R. Ahlrichs, Phys. Chem. Chem. Phys. 7, 3297 (2005).
   D. Rappoport and F. Furche, J. Chem. Phys. 133 134105 (2010).

----- AuxJ basis set information -----
Your calculation utilizes the auxiliary basis: def2/J
   F. Weigend, Phys. Chem. Chem. Phys. 8, 1057 (2006).

================================================================================
                                        WARNINGS
                       Please study these warnings very carefully!
================================================================================


WARNING: Geometry Optimization
  ===> : Switching off AutoStart
         For restart on a previous wavefunction, please use MOREAD

INFO   : the flag for use of the SHARK integral package has been found!

================================================================================
                                       INPUT FILE
================================================================================
NAME = /beegfs/scratch/ispackman/PFAS_EPR_calcs/benchmark/JChemEd_CF3_radical/CF3_radical_118.0_degrees_IN-PROGRESS/CF3_radical_118.0_degrees.inp
|  1> ! UKS TightSCF wB97x-D3 def2-TZVPD xyzfile opt freq
|  2> 
|  3> # CF3 radical 118.0 degrees fixed
|  4> 
|  5> %maxcore 1000
|  6> %pal
|  7> nprocs 18
|  8> end
|  9> 
| 10> %geom Constraints
| 11>         { A * 0 * C }
| 12>     end
| 13> end
| 14> * xyz 0 2
| 15> C 0.00 0.00 0.00
| 16> F 1.3015495798 0.0000000000 -0.1875998167
| 17> F -0.6507747899 1.1271750004 -0.1875998167
| 18> F -0.6507747899 -1.1271750004 -0.1875998167
| 19> **                         ****END OF INPUT****
================================================================================

                       *****************************
                       * Geometry Optimization Run *
                       *****************************

Geometry optimization settings:
Update method            Update   .... BFGS
Choice of coordinates    CoordSys .... Z-matrix Internals
Initial Hessian          InHess   .... Almoef's Model

Convergence Tolerances:
Energy Change            TolE     ....  5.0000e-06 Eh
Max. Gradient            TolMAXG  ....  3.0000e-04 Eh/bohr
RMS Gradient             TolRMSG  ....  1.0000e-04 Eh/bohr
Max. Displacement        TolMAXD  ....  4.0000e-03 bohr
RMS Displacement         TolRMSD  ....  2.0000e-03 bohr
Strict Convergence                ....  False
------------------------------------------------------------------------------
                        ORCA OPTIMIZATION COORDINATE SETUP
------------------------------------------------------------------------------

The optimization will be done in new redundant internal coordinates
Making redundant internal coordinates   ...  (new redundants) done
Evaluating the initial hessian          ...  (Almloef) done
Evaluating the coordinates              ...  done
Calculating the B-matrix                .... done
Calculating the G-matrix                .... done
Diagonalizing the G-matrix              .... done
Imposing constraints:
 Iter   0:  RMS(Cart)=    0.0000000000 RMS(Int)=    0.0000000000
CONVERGED
Will constrain atom 0 coordinate 1 
Will constrain atom 0 coordinate 2 
Will constrain atom 1 coordinate 2 
The first mode is                       ....    1
The number of degrees of freedom        ....    6
Storing new coordinates                 .... done

    -----------------------------------------------------------------
                    Redundant Internal Coordinates


    -----------------------------------------------------------------
         Definition                    Initial Value    Approx d2E/dq
    -----------------------------------------------------------------
      1. B(F   1,C   0)                  1.3150         0.684896   
      2. B(F   2,C   0)                  1.3150         0.684896   
      3. B(F   3,C   0)                  1.3150         0.684896   
      4. A(F   2,C   0,F   3)          118.0000         0.440101 C 
      5. A(F   1,C   0,F   2)          118.0000         0.440101 C 
      6. A(F   1,C   0,F   3)          118.0000         0.440101 C 
      7. I(F   1,F   3,F   2,C   0)     24.2826         0.062013   
    -----------------------------------------------------------------

Number of atoms                         .... 4
Number of degrees of freedom            .... 7

         *************************************************************
         *                GEOMETRY OPTIMIZATION CYCLE   1            *
         *************************************************************
---------------------------------
CARTESIAN COORDINATES (ANGSTROEM)
---------------------------------
  C      0.000000    0.000000    0.000000
  F      1.301550    0.000000   -0.187600
  F     -0.650775    1.127175   -0.187600
  F     -0.650775   -1.127175   -0.187600

----------------------------
CARTESIAN COORDINATES (A.U.)
----------------------------
  NO LB      ZA    FRAG     MASS         X           Y           Z
   0 C     6.0000    0    12.011    0.000000    0.000000    0.000000
   1 F     9.0000    0    18.998    2.459572    0.000000   -0.354512
   2 F     9.0000    0    18.998   -1.229786    2.130052   -0.354512
   3 F     9.0000    0    18.998   -1.229786   -2.130052   -0.354512

--------------------------------
INTERNAL COORDINATES (ANGSTROEM)
--------------------------------
 C      0   0   0     0.000000000000     0.00000000     0.00000000
 F      1   0   0     1.314999999963     0.00000000     0.00000000
 F      1   2   0     1.314999999970   118.00000000     0.00000000
 F      1   2   3     1.314999999970   118.00000000   152.24082897

---------------------------
INTERNAL COORDINATES (A.U.)
---------------------------
 C      0   0   0     0.000000000000     0.00000000     0.00000000
 F      1   0   0     2.484989866037     0.00000000     0.00000000
 F      1   2   0     2.484989866050   118.00000000     0.00000000
 F      1   2   3     2.484989866050   118.00000000   152.24082897

---------------------
BASIS SET INFORMATION
---------------------
There are 2 groups of distinct atoms

 Group   1 Type C   : 12s6p3d1f contracted to 6s3p3d1f pattern {621111/411/111/1}
 Group   2 Type F   : 12s7p3d1f contracted to 6s4p3d1f pattern {621111/4111/111/1}

Atom   0C    basis set group =>   1
Atom   1F    basis set group =>   2
Atom   2F    basis set group =>   2
Atom   3F    basis set group =>   2
---------------------------------
AUXILIARY/J BASIS SET INFORMATION
---------------------------------
There are 2 groups of distinct atoms

 Group   1 Type C   : 12s5p4d2f1g contracted to 6s4p3d1f1g pattern {711111/2111/211/2/1}
 Group   2 Type F   : 12s5p4d2f1g contracted to 6s4p3d1f1g pattern {711111/2111/211/2/1}

Atom   0C    basis set group =>   1
Atom   1F    basis set group =>   2
Atom   2F    basis set group =>   2
Atom   3F    basis set group =>   2


           ************************************************************
           *        Program running with 18 parallel MPI-processes    *
           *              working on a common directory               *
           ************************************************************
------------------------------------------------------------------------------
                           ORCA GTO INTEGRAL CALCULATION
                           -- RI-GTO INTEGRALS CHOSEN --
------------------------------------------------------------------------------
------------------------------------------------------------------------------
                   ___                                                        
                  /   \      - P O W E R E D   B Y -                         
                 /     \                                                     
                 |  |  |   _    _      __       _____    __    __             
                 |  |  |  | |  | |    /  \     |  _  \  |  |  /  |          
                  \  \/   | |  | |   /    \    | | | |  |  | /  /          
                 / \  \   | |__| |  /  /\  \   | |_| |  |  |/  /          
                |  |  |   |  __  | /  /__\  \  |    /   |      \           
                |  |  |   | |  | | |   __   |  |    \   |  |\   \          
                \     /   | |  | | |  |  |  |  | |\  \  |  | \   \       
                 \___/    |_|  |_| |__|  |__|  |_| \__\ |__|  \__/        
                                                                              
                      - O R C A' S   B I G   F R I E N D -                    
                                      &                                       
                       - I N T E G R A L  F E E D E R -                       
                                                                              
 v1 FN, 2020, v2 2021                                                         
------------------------------------------------------------------------------


Reading SHARK input file /beegfs/scratch/ispackman/PFAS_EPR_calcs/benchmark/JChemEd_CF3_radical/CF3_radical_118.0_degrees_IN-PROGRESS/CF3_radical_118.0_degrees.SHARKINP.tmp ... ok
----------------------
SHARK INTEGRAL PACKAGE
----------------------

Number of atoms                             ...      4
Number of basis functions                   ...    157
Number of shells                            ...     55
Maximum angular momentum                    ...      3
Integral batch strategy                     ... SHARK/LIBINT Hybrid
RI-J (if used) integral strategy            ... SPLIT-RIJ (Revised 2003 algorithm where possible)
Printlevel                                  ...      1
Contraction scheme used                     ... SEGMENTED contraction
Coulomb Range Separation                    ... NOT USED
Exchange Range Separation                   ... Long Range
   Mu parameter                             ...  0.250000
   Scaling (regular/separated)              ...  0.195728  0.804272
Finite Nucleus Model                        ... NOT USED
Auxiliary Coulomb fitting basis             ... AVAILABLE
   # of basis functions in Aux-J            ...    196
   # of shells in Aux-J                     ...     60
   Maximum angular momentum in Aux-J        ...      4
Auxiliary J/K fitting basis                 ... NOT available
Auxiliary Correlation fitting basis         ... NOT available
Auxiliary 'external' fitting basis          ... NOT available
Integral threshold                          ...     2.500000e-11
Primitive cut-off                           ...     2.500000e-12
Primitive pair pre-selection threshold      ...     2.500000e-12

Calculating pre-screening integrals         ... done (  0.0 sec) Dimension = 55
Organizing shell pair data                  ... done (  0.0 sec)
Shell pair information
Total number of shell pairs                 ...      1540
Shell pairs after pre-screening             ...      1492
Total number of primitive shell pairs       ...      4274
Primitive shell pairs kept                  ...      3443
          la=0 lb=0:    276 shell pairs
          la=1 lb=0:    354 shell pairs
          la=1 lb=1:    120 shell pairs
          la=2 lb=0:    276 shell pairs
          la=2 lb=1:    180 shell pairs
          la=2 lb=2:     78 shell pairs
          la=3 lb=0:     90 shell pairs
          la=3 lb=1:     60 shell pairs
          la=3 lb=2:     48 shell pairs
          la=3 lb=3:     10 shell pairs

Calculating one electron integrals          ... done (  0.0 sec)
Calculating RI/J V-Matrix + Cholesky decomp.... done (  0.1 sec)
Calculating Nuclear repulsion               ... done (  0.0 sec) ENN=    122.232272216453 Eh

SHARK setup successfully completed in   0.3 seconds

Maximum memory used throughout the entire GTOINT-calculation: 15.2 MB


           ************************************************************
           *        Program running with 18 parallel MPI-processes    *
           *              working on a common directory               *
           ************************************************************
-------------------------------------------------------------------------------
                                 ORCA SCF
-------------------------------------------------------------------------------

------------
SCF SETTINGS
------------
Hamiltonian:
 Density Functional     Method          .... DFT(GTOs)
 Exchange Functional    Exchange        .... WB97X-D3
 Correlation Functional Correlation     .... WB97X-D3
 Gradients option       PostSCFGGA      .... off
 Hybrid DFT is turned on
   Fraction HF Exchange ScalHFX         ....  0.195728
   Scaling of DF-GGA-X  ScalDFX         ....  0.000000
   Scaling of DF-GGA-C  ScalDFC         ....  1.000000
   Scaling of DF-LDA-C  ScalLDAC        ....  1.000000
   Perturbative correction              ....  0.000000
   Density functional embedding theory  .... OFF
 Long-range corrected/Screened/Range-Separated Hybrid DFT is turned on
   Amount of maximum screened exact exchange              ....  0.804272
   Range separation parameter mu (erf(mu*r12)/r12)        ....  0.250000
 RI-approximation to the Coulomb term is turned on
   Number of AuxJ basis functions       .... 196
   RIJ-COSX (HFX calculated with COS-X)).... on


General Settings:
 Integral files         IntName         .... /beegfs/scratch/ispackman/PFAS_EPR_calcs/benchmark/JChemEd_CF3_radical/CF3_radical_118.0_degrees_IN-PROGRESS/CF3_radical_118.0_degrees
 Hartree-Fock type      HFTyp           .... UHF
 Total Charge           Charge          ....    0
 Multiplicity           Mult            ....    2
 Number of Electrons    NEL             ....   33
 Basis Dimension        Dim             ....  157
 Nuclear Repulsion      ENuc            ....    122.2322722165 Eh

Convergence Acceleration:
 DIIS                   CNVDIIS         .... on
   Start iteration      DIISMaxIt       ....    12
   Startup error        DIISStart       ....  0.200000
   # of expansion vecs  DIISMaxEq       ....     5
   Bias factor          DIISBfac        ....   1.050
   Max. coefficient     DIISMaxC        ....  10.000
 Trust-Rad. Augm. Hess. CNVTRAH         .... auto
   Auto Start mean grad. ratio tolernc. ....  1.125000
   Auto Start start iteration           ....    20
   Auto Start num. interpolation iter.  ....    10
   Max. Number of Micro iterations      ....    16
   Max. Number of Macro iterations      .... Maxiter - #DIIS iter
   Number of Davidson start vectors     ....     2
   Converg. threshold I  (grad. norm)   ....   1.000e-05
   Converg. threshold II (energy diff.) ....   1.000e-08
   Grad. Scal. Fac. for Micro threshold ....   0.100
   Minimum threshold for Micro iter.    ....   0.010
   NR start threshold (gradient norm)   ....   0.001
   Initial trust radius                 ....   0.400
   Minimum AH scaling param. (alpha)    ....   1.000
   Maximum AH scaling param. (alpha)    .... 1000.000
   Orbital update algorithm             .... Taylor
   White noise on init. David. guess    .... on
   Maximum white noise                  ....   0.010
   Quad. conv. algorithm                .... NR
 SOSCF                  CNVSOSCF        .... off
 Level Shifting         CNVShift        .... on
   Level shift para.    LevelShift      ....    0.2500
   Turn off err/grad.   ShiftErr        ....    0.0010
 Zerner damping         CNVZerner       .... off
 Static damping         CNVDamp         .... on
   Fraction old density DampFac         ....    0.7000
   Max. Damping (<1)    DampMax         ....    0.9800
   Min. Damping (>=0)   DampMin         ....    0.0000
   Turn off err/grad.   DampErr         ....    0.1000
 Fernandez-Rico         CNVRico         .... off

SCF Procedure:
 Maximum # iterations   MaxIter         ....   125
 SCF integral mode      SCFMode         .... Direct
   Integral package                     .... SHARK and LIBINT hybrid scheme
 Reset frequency        DirectResetFreq ....    20
 Integral Threshold     Thresh          ....  2.500e-11 Eh
 Primitive CutOff       TCut            ....  2.500e-12 Eh

Convergence Tolerance:
 Convergence Check Mode ConvCheckMode   .... Total+1el-Energy
 Convergence forced     ConvForced      .... 0
 Energy Change          TolE            ....  1.000e-08 Eh
 1-El. energy change                    ....  1.000e-05 Eh
 DIIS Error             TolErr          ....  5.000e-07


Diagonalization of the overlap matrix:
Smallest eigenvalue                        ... 2.770e-04
Time for diagonalization                   ...    0.007 sec
Threshold for overlap eigenvalues          ... 1.000e-08
Number of eigenvalues below threshold      ... 0
Time for construction of square roots      ...    0.018 sec
Total time needed                          ...    0.027 sec

Time for model grid setup =    0.059 sec

------------------------------
INITIAL GUESS: MODEL POTENTIAL
------------------------------
Loading Hartree-Fock densities                     ... done
Calculating cut-offs                               ... done
Initializing the effective Hamiltonian             ... done
Setting up the integral package (SHARK)            ... done
Starting the Coulomb interaction                   ... done (   0.1 sec)
Reading the grid                                   ... done
Mapping shells                                     ... done
Starting the XC term evaluation                    ... done (   0.0 sec)
  promolecular density results
     # of electrons  =     32.999721838
     EX              =    -35.093772824
     EC              =     -1.143491780
     EX+EC           =    -36.237264603
Transforming the Hamiltonian                       ... done (   0.0 sec)
Diagonalizing the Hamiltonian                      ... done (   0.0 sec)
Back transforming the eigenvectors                 ... done (   0.0 sec)
Now organizing SCF variables                       ... done
                      ------------------
                      INITIAL GUESS DONE (   0.2 sec)
                      ------------------
-------------------
DFT GRID GENERATION
-------------------

General Integration Accuracy     IntAcc      ... 4.388
Radial Grid Type                 RadialGrid  ... OptM3 with GC (2021)
Angular Grid (max. ang.)         AngularGrid ... 4 (Lebedev-302)
Angular grid pruning method      GridPruning ... 4 (adaptive)
Weight generation scheme         WeightScheme... Becke
Basis function cutoff            BFCut       ... 1.0000e-11
Integration weight cutoff        WCut        ... 1.0000e-14
Angular grids for H and He will be reduced by one unit
Partially contracted basis set               ... off
Rotationally invariant grid construction     ... off

Total number of grid points                  ...    25771
Total number of batches                      ...      405
Average number of points per batch           ...       63
Average number of grid points per atom       ...     6443
Time for grid setup =    0.151 sec

--------------------
COSX GRID GENERATION
--------------------

GRIDX 1
-------
General Integration Accuracy     IntAcc      ... 3.816
Radial Grid Type                 RadialGrid  ... OptM3 with GC (2021)
Angular Grid (max. ang.)         AngularGrid ... 1 (Lebedev-50)
Angular grid pruning method      GridPruning ... 4 (adaptive)
Weight generation scheme         WeightScheme... Becke
Basis function cutoff            BFCut       ... 1.0000e-11
Integration weight cutoff        WCut        ... 1.0000e-14
Angular grids for H and He will be reduced by one unit
Partially contracted basis set               ... on
Rotationally invariant grid construction     ... off

Total number of grid points                  ...     3272
Total number of batches                      ...       52
Average number of points per batch           ...       62
Average number of grid points per atom       ...      818
UseSFitting                                  ... on

GRIDX 2
-------
General Integration Accuracy     IntAcc      ... 4.020
Radial Grid Type                 RadialGrid  ... OptM3 with GC (2021)
Angular Grid (max. ang.)         AngularGrid ... 2 (Lebedev-110)
Angular grid pruning method      GridPruning ... 4 (adaptive)
Weight generation scheme         WeightScheme... Becke
Basis function cutoff            BFCut       ... 1.0000e-11
Integration weight cutoff        WCut        ... 1.0000e-14
Angular grids for H and He will be reduced by one unit
Partially contracted basis set               ... on
Rotationally invariant grid construction     ... off

Total number of grid points                  ...     9149
Total number of batches                      ...      145
Average number of points per batch           ...       63
Average number of grid points per atom       ...     2287
UseSFitting                                  ... on

GRIDX 3
-------
General Integration Accuracy     IntAcc      ... 4.338
Radial Grid Type                 RadialGrid  ... OptM3 with GC (2021)
Angular Grid (max. ang.)         AngularGrid ... 3 (Lebedev-194)
Angular grid pruning method      GridPruning ... 4 (adaptive)
Weight generation scheme         WeightScheme... Becke
Basis function cutoff            BFCut       ... 1.0000e-11
Integration weight cutoff        WCut        ... 1.0000e-14
Angular grids for H and He will be reduced by one unit
Partially contracted basis set               ... on
Rotationally invariant grid construction     ... off

Total number of grid points                  ...    19666
Total number of batches                      ...      310
Average number of points per batch           ...       63
Average number of grid points per atom       ...     4916
UseSFitting                                  ... on

Time for X-Grid setup             =    0.373 sec

--------------
SCF ITERATIONS
--------------
ITER       Energy         Delta-E        Max-DP      RMS-DP      [F,P]     Damp
               ***  Starting incremental Fock matrix formation  ***
  0   -337.5634489773   0.000000000000 0.01526701  0.00034416  0.0622382 0.7000
  1   -337.5836996764  -0.020250699091 0.01117562  0.00023956  0.0297645 0.7000
                               ***Turning on DIIS***
  2   -337.5926730274  -0.008973351021 0.02277308  0.00049527  0.0172725 0.0000
  3   -337.6096564321  -0.016983404765 0.00620981  0.00014998  0.0153434 0.0000
  4   -337.6121345041  -0.002478071917 0.00827829  0.00012550  0.0052473 0.0000
  5   -337.6125194288  -0.000384924728 0.00740376  0.00010206  0.0037015 0.0000
  6   -337.6126874290  -0.000168000237 0.00608405  0.00008258  0.0021845 0.0000
  7   -337.6127592734  -0.000071844339 0.00426831  0.00005614  0.0012929 0.0000
  8   -337.6127845079  -0.000025234583 0.00479204  0.00006257  0.0007012 0.0000
               *** Restarting incremental Fock matrix formation ***
                                   *** Resetting DIIS ***
  9   -337.6127935144  -0.000009006443 0.00075761  0.00001004  0.0001577 0.0000
 10   -337.6127942040  -0.000000689658 0.00018936  0.00000269  0.0001083 0.0000
 11   -337.6127944132  -0.000000209145 0.00025433  0.00000363  0.0000566 0.0000
 12   -337.6127945655  -0.000000152301 0.00009249  0.00000156  0.0000167 0.0000
 13   -337.6127945782  -0.000000012713 0.00004323  0.00000049  0.0000056 0.0000
 14   -337.6127945778   0.000000000426 0.00000760  0.00000013  0.0000022 0.0000
 15   -337.6127945780  -0.000000000189 0.00000142  0.00000003  0.0000013 0.0000
                 **** Energy Check signals convergence ****

               *****************************************************
               *                     SUCCESS                       *
               *           SCF CONVERGED AFTER  16 CYCLES          *
               *****************************************************

Old exchange energy                            =    -10.534209640 Eh
New exchange energy                            =    -10.534213491 Eh
Exchange energy change after final integration =     -0.000003851 Eh
Total energy after final integration           =   -337.612798428 Eh
Final COS-X integration done in                =     0.390 sec

----------------
TOTAL SCF ENERGY
----------------

Total Energy       :         -337.61279843 Eh           -9186.91130 eV

Components:
Nuclear Repulsion  :          122.23227222 Eh            3326.10922 eV
Electronic Energy  :         -459.84507064 Eh          -12513.02052 eV
One Electron Energy:         -711.25174971 Eh          -19354.14406 eV
Two Electron Energy:          251.40667907 Eh            6841.12353 eV
Max COSX asymmetry :            0.00000055 Eh               0.00001 eV

Virial components:
Potential Energy   :         -674.13987481 Eh          -18344.27860 eV
Kinetic Energy     :          336.52707638 Eh            9157.36730 eV
Virial Ratio       :            2.00322625


DFT components:
N(Alpha)           :       16.999823587851 electrons
N(Beta)            :       15.999919482681 electrons
N(Total)           :       32.999743070533 electrons
E(XC)              :      -26.184761000463 Eh       
DFET-embed. en.    :        0.000000000000 Eh       

---------------
SCF CONVERGENCE
---------------

  Last Energy change         ...    1.1769e-09  Tolerance :   1.0000e-08
  Last MAX-Density change    ...    0.0000e+00  Tolerance :   1.0000e-07
  Last RMS-Density change    ...    0.0000e+00  Tolerance :   5.0000e-09
  Last DIIS Error            ...    5.7990e-07  Tolerance :   5.0000e-07

             **** THE GBW FILE WAS UPDATED (/beegfs/scratch/ispackman/PFAS_EPR_calcs/benchmark/JChemEd_CF3_radical/CF3_radical_118.0_degrees_IN-PROGRESS/CF3_radical_118.0_degrees.gbw) ****
             **** DENSITY /beegfs/scratch/ispackman/PFAS_EPR_calcs/benchmark/JChemEd_CF3_radical/CF3_radical_118.0_degrees_IN-PROGRESS/CF3_radical_118.0_degrees.scfp WAS UPDATED ****
             **** ENERGY FILE WAS UPDATED (/beegfs/scratch/ispackman/PFAS_EPR_calcs/benchmark/JChemEd_CF3_radical/CF3_radical_118.0_degrees_IN-PROGRESS/CF3_radical_118.0_degrees.en.tmp) ****
----------------------
UHF SPIN CONTAMINATION
----------------------

Warning: in a DFT calculation there is little theoretical justification to 
         calculate <S**2> as in Hartree-Fock theory. We will do it anyways
         but you should keep in mind that the values have only limited relevance

Expectation value of <S**2>     :     0.752446
Ideal value S*(S+1) for S=0.5   :     0.750000
Deviation                       :     0.002446

             **** THE GBW FILE WAS UPDATED (/beegfs/scratch/ispackman/PFAS_EPR_calcs/benchmark/JChemEd_CF3_radical/CF3_radical_118.0_degrees_IN-PROGRESS/CF3_radical_118.0_degrees.gbw) ****
             **** DENSITY /beegfs/scratch/ispackman/PFAS_EPR_calcs/benchmark/JChemEd_CF3_radical/CF3_radical_118.0_degrees_IN-PROGRESS/CF3_radical_118.0_degrees.scfp WAS UPDATED ****
----------------
ORBITAL ENERGIES
----------------
                 SPIN UP ORBITALS
  NO   OCC          E(Eh)            E(eV) 
   0   1.0000     -24.858220      -676.4266 
   1   1.0000     -24.858208      -676.4262 
   2   1.0000     -24.858197      -676.4259 
   3   1.0000     -10.521712      -286.3103 
   4   1.0000      -1.460074       -39.7306 
   5   1.0000      -1.388199       -37.7748 
   6   1.0000      -1.388196       -37.7747 
   7   1.0000      -0.835384       -22.7319 
   8   1.0000      -0.733996       -19.9730 
   9   1.0000      -0.733989       -19.9729 
  10   1.0000      -0.696959       -18.9652 
  11   1.0000      -0.603153       -16.4126 
  12   1.0000      -0.603149       -16.4125 
  13   1.0000      -0.587123       -15.9764 
  14   1.0000      -0.587113       -15.9762 
  15   1.0000      -0.555388       -15.1129 
  16   1.0000      -0.310824        -8.4580 
  17   0.0000       0.058960         1.6044 
  18   0.0000       0.100361         2.7310 
  19   0.0000       0.100361         2.7310 
  20   0.0000       0.118973         3.2374 
  21   0.0000       0.154149         4.1946 
  22   0.0000       0.154149         4.1946 
  23   0.0000       0.156778         4.2662 
  24   0.0000       0.172861         4.7038 
  25   0.0000       0.172863         4.7038 
  26   0.0000       0.189858         5.1663 
  27   0.0000       0.237352         6.4587 
  28   0.0000       0.282521         7.6878 
  29   0.0000       0.282526         7.6879 
  30   0.0000       0.322152         8.7662 
  31   0.0000       0.352842         9.6013 
  32   0.0000       0.374573        10.1926 
  33   0.0000       0.374575        10.1927 
  34   0.0000       0.385634        10.4936 
  35   0.0000       0.385647        10.4940 
  36   0.0000       0.403151        10.9703 
  37   0.0000       0.439130        11.9493 
  38   0.0000       0.439131        11.9494 
  39   0.0000       0.478281        13.0147 
  40   0.0000       0.493757        13.4358 
  41   0.0000       0.493761        13.4359 
  42   0.0000       0.639190        17.3932 
  43   0.0000       0.645333        17.5604 
  44   0.0000       0.645335        17.5605 
  45   0.0000       0.667219        18.1559 
  46   0.0000       0.667220        18.1560 
  47   0.0000       0.718316        19.5464 
  48   0.0000       0.728848        19.8330 
  49   0.0000       0.739815        20.1314 
  50   0.0000       0.755272        20.5520 
  51   0.0000       0.755277        20.5521 
  52   0.0000       0.788248        21.4493 
  53   0.0000       0.788250        21.4494 
  54   0.0000       0.857732        23.3401 
  55   0.0000       0.857733        23.3401 
  56   0.0000       0.868169        23.6241 
  57   0.0000       0.965735        26.2790 
  58   0.0000       0.965736        26.2790 
  59   0.0000       0.975151        26.5352 
  60   0.0000       1.045232        28.4422 
  61   0.0000       1.045236        28.4423 
  62   0.0000       1.056676        28.7536 
  63   0.0000       1.144129        31.1333 
  64   0.0000       1.144131        31.1334 
  65   0.0000       1.182967        32.1902 
  66   0.0000       1.264713        34.4146 
  67   0.0000       1.273881        34.6641 
  68   0.0000       1.273889        34.6643 
  69   0.0000       1.282392        34.8957 
  70   0.0000       1.302445        35.4413 
  71   0.0000       1.302459        35.4417 
  72   0.0000       1.503617        40.9155 
  73   0.0000       1.503630        40.9158 
  74   0.0000       1.710893        46.5558 
  75   0.0000       2.088861        56.8408 
  76   0.0000       2.153638        58.6035 
  77   0.0000       2.153638        58.6035 
  78   0.0000       2.174660        59.1755 
  79   0.0000       2.199110        59.8408 
  80   0.0000       2.199129        59.8413 
  81   0.0000       2.295382        62.4605 
  82   0.0000       2.311466        62.8982 
  83   0.0000       2.403409        65.4001 
  84   0.0000       2.403423        65.4005 
  85   0.0000       2.495222        67.8984 
  86   0.0000       2.541699        69.1631 
  87   0.0000       2.541717        69.1636 
  88   0.0000       2.768614        75.3378 
  89   0.0000       2.768627        75.3382 
  90   0.0000       2.804922        76.3258 
  91   0.0000       2.930704        79.7485 
  92   0.0000       2.930708        79.7486 
  93   0.0000       3.116661        84.8087 
  94   0.0000       3.182747        86.6070 
  95   0.0000       3.182798        86.6083 
  96   0.0000       3.247671        88.3736 
  97   0.0000       3.343121        90.9709 
  98   0.0000       3.343154        90.9719 
  99   0.0000       3.369804        91.6970 
 100   0.0000       3.385925        92.1357 
 101   0.0000       3.385966        92.1368 
 102   0.0000       3.496446        95.1431 
 103   0.0000       3.496499        95.1446 
 104   0.0000       3.741374       101.8080 
 105   0.0000       3.774408       102.7069 
 106   0.0000       3.774450       102.7080 
 107   0.0000       3.887071       105.7726 
 108   0.0000       3.920448       106.6808 
 109   0.0000       3.920581       106.6844 
 110   0.0000       4.118132       112.0601 
 111   0.0000       4.118171       112.0611 
 112   0.0000       4.273987       116.3011 
 113   0.0000       4.369114       118.8896 
 114   0.0000       5.138892       139.8364 
 115   0.0000       5.502510       149.7309 
 116   0.0000       5.502591       149.7331 
 117   0.0000       6.875999       187.1055 
 118   0.0000       6.904315       187.8759 
 119   0.0000       6.904319       187.8761 
 120   0.0000       6.907247       187.9557 
 121   0.0000       6.912858       188.1084 
 122   0.0000       6.912868       188.1087 
 123   0.0000       6.914054       188.1410 
 124   0.0000       6.945617       188.9999 
 125   0.0000       6.945680       189.0016 
 126   0.0000       7.042331       191.6316 
 127   0.0000       7.074343       192.5027 
 128   0.0000       7.074391       192.5040 
 129   0.0000       7.165310       194.9780 
 130   0.0000       7.165324       194.9784 
 131   0.0000       7.295648       198.5247 
 132   0.0000       7.432424       202.2465 
 133   0.0000       7.432440       202.2470 
 134   0.0000       7.575702       206.1453 
 135   0.0000       7.575743       206.1464 
 136   0.0000       7.659349       208.4215 
 137   0.0000       7.989659       217.4097 
 138   0.0000       8.475171       230.6211 
 139   0.0000       8.514220       231.6837 
 140   0.0000       8.514272       231.6851 
 141   0.0000       8.577099       233.3947 
 142   0.0000       8.577124       233.3954 
 143   0.0000       8.583099       233.5580 
 144   0.0000       8.818824       239.9724 
 145   0.0000       8.854296       240.9377 
 146   0.0000       8.854300       240.9378 
 147   0.0000       9.026905       245.6346 
 148   0.0000       9.026956       245.6359 
 149   0.0000       9.078302       247.0332 
 150   0.0000       9.268925       252.2203 
 151   0.0000       9.345921       254.3154 
 152   0.0000       9.345929       254.3157 
 153   0.0000      23.000706       625.8810 
 154   0.0000      57.153695      1555.2311 
 155   0.0000      57.316309      1559.6561 
 156   0.0000      57.316321      1559.6564 

                 SPIN DOWN ORBITALS
  NO   OCC          E(Eh)            E(eV) 
   0   1.0000     -24.855342      -676.3482 
   1   1.0000     -24.855329      -676.3479 
   2   1.0000     -24.855312      -676.3474 
   3   1.0000     -10.508648      -285.9549 
   4   1.0000      -1.449230       -39.4355 
   5   1.0000      -1.380495       -37.5652 
   6   1.0000      -1.380483       -37.5648 
   7   1.0000      -0.815188       -22.1824 
   8   1.0000      -0.725478       -19.7413 
   9   1.0000      -0.725460       -19.7408 
  10   1.0000      -0.659719       -17.9519 
  11   1.0000      -0.595192       -16.1960 
  12   1.0000      -0.595190       -16.1959 
  13   1.0000      -0.572605       -15.5814 
  14   1.0000      -0.572591       -15.5810 
  15   1.0000      -0.552378       -15.0310 
  16   0.0000       0.036793         1.0012 
  17   0.0000       0.075793         2.0624 
  18   0.0000       0.104330         2.8390 
  19   0.0000       0.104331         2.8390 
  20   0.0000       0.133211         3.6249 
  21   0.0000       0.157746         4.2925 
  22   0.0000       0.157746         4.2925 
  23   0.0000       0.167964         4.5705 
  24   0.0000       0.179959         4.8969 
  25   0.0000       0.179960         4.8970 
  26   0.0000       0.211701         5.7607 
  27   0.0000       0.240315         6.5393 
  28   0.0000       0.293572         7.9885 
  29   0.0000       0.293579         7.9887 
  30   0.0000       0.329204         8.9581 
  31   0.0000       0.363340         9.8870 
  32   0.0000       0.377634        10.2760 
  33   0.0000       0.377636        10.2760 
  34   0.0000       0.403222        10.9722 
  35   0.0000       0.403251        10.9730 
  36   0.0000       0.419567        11.4170 
  37   0.0000       0.440175        11.9778 
  38   0.0000       0.440175        11.9778 
  39   0.0000       0.484034        13.1712 
  40   0.0000       0.493513        13.4292 
  41   0.0000       0.493516        13.4292 
  42   0.0000       0.647748        17.6261 
  43   0.0000       0.647749        17.6261 
  44   0.0000       0.648147        17.6370 
  45   0.0000       0.668591        18.1933 
  46   0.0000       0.668596        18.1934 
  47   0.0000       0.719092        19.5675 
  48   0.0000       0.738112        20.0850 
  49   0.0000       0.739258        20.1162 
  50   0.0000       0.760375        20.6908 
  51   0.0000       0.760378        20.6909 
  52   0.0000       0.791813        21.5463 
  53   0.0000       0.791815        21.5464 
  54   0.0000       0.860495        23.4153 
  55   0.0000       0.860500        23.4154 
  56   0.0000       0.870521        23.6881 
  57   0.0000       0.977735        26.6055 
  58   0.0000       0.977739        26.6056 
  59   0.0000       0.988536        26.8994 
  60   0.0000       1.047450        28.5026 
  61   0.0000       1.047450        28.5026 
  62   0.0000       1.060671        28.8623 
  63   0.0000       1.146363        31.1941 
  64   0.0000       1.146365        31.1942 
  65   0.0000       1.189093        32.3569 
  66   0.0000       1.264623        34.4121 
  67   0.0000       1.277525        34.7632 
  68   0.0000       1.277541        34.7636 
  69   0.0000       1.295254        35.2457 
  70   0.0000       1.315688        35.8017 
  71   0.0000       1.315692        35.8018 
  72   0.0000       1.512569        41.1591 
  73   0.0000       1.512588        41.1596 
  74   0.0000       1.765361        48.0379 
  75   0.0000       2.099065        57.1185 
  76   0.0000       2.162683        58.8496 
  77   0.0000       2.162707        58.8503 
  78   0.0000       2.175970        59.2112 
  79   0.0000       2.208510        60.0966 
  80   0.0000       2.208511        60.0966 
  81   0.0000       2.298166        62.5363 
  82   0.0000       2.333152        63.4883 
  83   0.0000       2.413342        65.6704 
  84   0.0000       2.413357        65.6708 
  85   0.0000       2.502734        68.1029 
  86   0.0000       2.552274        69.4509 
  87   0.0000       2.552303        69.4517 
  88   0.0000       2.780176        75.6524 
  89   0.0000       2.780251        75.6545 
  90   0.0000       2.823959        76.8438 
  91   0.0000       2.935470        79.8782 
  92   0.0000       2.935476        79.8784 
  93   0.0000       3.163423        86.0811 
  94   0.0000       3.204018        87.1858 
  95   0.0000       3.204053        87.1867 
  96   0.0000       3.268171        88.9315 
  97   0.0000       3.363033        91.5128 
  98   0.0000       3.363162        91.5163 
  99   0.0000       3.373641        91.8015 
 100   0.0000       3.422863        93.1408 
 101   0.0000       3.422915        93.1423 
 102   0.0000       3.526859        95.9707 
 103   0.0000       3.526881        95.9713 
 104   0.0000       3.768503       102.5462 
 105   0.0000       3.781659       102.9042 
 106   0.0000       3.781709       102.9055 
 107   0.0000       3.895209       105.9940 
 108   0.0000       3.938844       107.1814 
 109   0.0000       3.938908       107.1831 
 110   0.0000       4.122776       112.1864 
 111   0.0000       4.122815       112.1875 
 112   0.0000       4.282654       116.5370 
 113   0.0000       4.378070       119.1333 
 114   0.0000       5.155645       140.2922 
 115   0.0000       5.513210       150.0221 
 116   0.0000       5.513312       150.0249 
 117   0.0000       6.878351       187.1694 
 118   0.0000       6.909940       188.0290 
 119   0.0000       6.909943       188.0291 
 120   0.0000       6.913338       188.1215 
 121   0.0000       6.917953       188.2471 
 122   0.0000       6.917968       188.2475 
 123   0.0000       6.919161       188.2799 
 124   0.0000       6.948810       189.0867 
 125   0.0000       6.948874       189.0885 
 126   0.0000       7.047174       191.7634 
 127   0.0000       7.077495       192.5884 
 128   0.0000       7.077539       192.5896 
 129   0.0000       7.170293       195.1136 
 130   0.0000       7.170306       195.1139 
 131   0.0000       7.302817       198.7198 
 132   0.0000       7.441240       202.4864 
 133   0.0000       7.441257       202.4869 
 134   0.0000       7.580898       206.2867 
 135   0.0000       7.580918       206.2873 
 136   0.0000       7.667176       208.6345 
 137   0.0000       7.995538       217.5696 
 138   0.0000       8.482991       230.8339 
 139   0.0000       8.524433       231.9616 
 140   0.0000       8.524483       231.9630 
 141   0.0000       8.586780       233.6582 
 142   0.0000       8.586803       233.6588 
 143   0.0000       8.590365       233.7557 
 144   0.0000       8.829971       240.2757 
 145   0.0000       8.864148       241.2057 
 146   0.0000       8.864155       241.2059 
 147   0.0000       9.029930       245.7169 
 148   0.0000       9.029983       245.7183 
 149   0.0000       9.083703       247.1801 
 150   0.0000       9.275142       252.3894 
 151   0.0000       9.350941       254.4520 
 152   0.0000       9.350952       254.4523 
 153   0.0000      23.023911       626.5125 
 154   0.0000      57.156552      1555.3088 
 155   0.0000      57.319148      1559.7333 
 156   0.0000      57.319160      1559.7336 

                    ********************************
                    * MULLIKEN POPULATION ANALYSIS *
                    ********************************

--------------------------------------------
MULLIKEN ATOMIC CHARGES AND SPIN POPULATIONS
--------------------------------------------
   0 C :    0.502689    0.869098
   1 F :   -0.167502    0.043619
   2 F :   -0.167594    0.043642
   3 F :   -0.167593    0.043641
Sum of atomic charges         :    0.0000000
Sum of atomic spin populations:    1.0000000

-----------------------------------------------------
MULLIKEN REDUCED ORBITAL CHARGES AND SPIN POPULATIONS
-----------------------------------------------------
CHARGE
  0 C s       :     3.080813  s :     3.080813
      pz      :     1.030489  p :     2.087448
      px      :     0.528559
      py      :     0.528400
      dz2     :     0.030451  d :     0.290598
      dxz     :     0.048456
      dyz     :     0.048442
      dx2y2   :     0.081618
      dxy     :     0.081631
      f0      :     0.004371  f :     0.038452
      f+1     :     0.002717
      f-1     :     0.002716
      f+2     :     0.004583
      f-2     :     0.004582
      f+3     :     0.005537
      f-3     :     0.013947
  1 F s       :     3.953805  s :     3.953805
      pz      :     1.877628  p :     5.198835
      px      :     1.410446
      py      :     1.910761
      dz2     :     0.000935  d :     0.014063
      dxz     :     0.008733
      dyz     :    -0.000165
      dx2y2   :     0.006345
      dxy     :    -0.001785
      f0      :     0.000083  f :     0.000800
      f+1     :     0.000160
      f-1     :     0.000010
      f+2     :     0.000144
      f-2     :     0.000007
      f+3     :     0.000249
      f-3     :     0.000147
  2 F s       :     3.953835  s :     3.953835
      pz      :     1.877598  p :     5.198885
      px      :     1.785746
      py      :     1.535540
      dz2     :     0.000939  d :     0.014074
      dxz     :     0.002059
      dyz     :     0.006506
      dx2y2   :     0.000251
      dxy     :     0.004319
      f0      :     0.000083  f :     0.000800
      f+1     :     0.000048
      f-1     :     0.000123
      f+2     :     0.000041
      f-2     :     0.000110
      f+3     :     0.000249
      f-3     :     0.000147
  3 F s       :     3.953834  s :     3.953834
      pz      :     1.877598  p :     5.198885
      px      :     1.785746
      py      :     1.535540
      dz2     :     0.000939  d :     0.014074
      dxz     :     0.002059
      dyz     :     0.006506
      dx2y2   :     0.000251
      dxy     :     0.004319
      f0      :     0.000083  f :     0.000800
      f+1     :     0.000048
      f-1     :     0.000123
      f+2     :     0.000041
      f-2     :     0.000110
      f+3     :     0.000249
      f-3     :     0.000147

SPIN
  0 C s       :     0.173349  s :     0.173349
      pz      :     0.660648  p :     0.685874
      px      :     0.012617
      py      :     0.012608
      dz2     :     0.013646  d :     0.010910
      dxz     :    -0.001893
      dyz     :    -0.001891
      dx2y2   :     0.000529
      dxy     :     0.000518
      f0      :    -0.000524  f :    -0.001034
      f+1     :    -0.000579
      f-1     :    -0.000580
      f+2     :    -0.000004
      f-2     :    -0.000005
      f+3     :     0.000551
      f-3     :     0.000108
  1 F s       :     0.001525  s :     0.001525
      pz      :     0.052312  p :     0.038906
      px      :    -0.012039
      py      :    -0.001367
      dz2     :     0.000164  d :     0.003131
      dxz     :     0.002614
      dyz     :     0.000040
      dx2y2   :     0.000323
      dxy     :    -0.000009
      f0      :     0.000010  f :     0.000058
      f+1     :     0.000012
      f-1     :    -0.000001
      f+2     :     0.000031
      f-2     :     0.000001
      f+3     :     0.000004
      f-3     :     0.000001
  2 F s       :     0.001517  s :     0.001517
      pz      :     0.052313  p :     0.038940
      px      :    -0.004040
      py      :    -0.009334
      dz2     :     0.000163  d :     0.003127
      dxz     :     0.000684
      dyz     :     0.001971
      dx2y2   :     0.000071
      dxy     :     0.000238
      f0      :     0.000010  f :     0.000058
      f+1     :     0.000002
      f-1     :     0.000009
      f+2     :     0.000008
      f-2     :     0.000024
      f+3     :     0.000004
      f-3     :     0.000001
  3 F s       :     0.001516  s :     0.001516
      pz      :     0.052313  p :     0.038940
      px      :    -0.004040
      py      :    -0.009334
      dz2     :     0.000163  d :     0.003127
      dxz     :     0.000684
      dyz     :     0.001971
      dx2y2   :     0.000071
      dxy     :     0.000238
      f0      :     0.000010  f :     0.000058
      f+1     :     0.000002
      f-1     :     0.000009
      f+2     :     0.000008
      f-2     :     0.000024
      f+3     :     0.000004
      f-3     :     0.000001


                     *******************************
                     * LOEWDIN POPULATION ANALYSIS *
                     *******************************

-------------------------------------------
LOEWDIN ATOMIC CHARGES AND SPIN POPULATIONS
-------------------------------------------
   0 C :   -0.440114    0.614757
   1 F :    0.146717    0.128385
   2 F :    0.146699    0.128429
   3 F :    0.146699    0.128429

----------------------------------------------------
LOEWDIN REDUCED ORBITAL CHARGES AND SPIN POPULATIONS
----------------------------------------------------
CHARGE
  0 C s       :     2.632189  s :     2.632189
      pz      :     0.869774  p :     2.288214
      px      :     0.709236
      py      :     0.709204
      dz2     :     0.154649  d :     1.273785
      dxz     :     0.178566
      dyz     :     0.178565
      dx2y2   :     0.381000
      dxy     :     0.381006
      f0      :     0.020931  f :     0.245926
      f+1     :     0.019179
      f-1     :     0.019178
      f+2     :     0.027812
      f-2     :     0.027812
      f+3     :     0.053293
      f-3     :     0.077720
  1 F s       :     3.565091  s :     3.565091
      pz      :     1.775589  p :     5.093265
      px      :     1.535008
      py      :     1.782668
      dz2     :     0.023536  d :     0.192938
      dxz     :     0.068615
      dyz     :     0.001846
      dx2y2   :     0.046407
      dxy     :     0.052535
      f0      :     0.000244  f :     0.001989
      f+1     :     0.000354
      f-1     :     0.000023
      f+2     :     0.000475
      f-2     :     0.000020
      f+3     :     0.000517
      f-3     :     0.000355
  2 F s       :     3.565091  s :     3.565091
      pz      :     1.775584  p :     5.093281
      px      :     1.720769
      py      :     1.596929
      dz2     :     0.023536  d :     0.192940
      dxz     :     0.018538
      dyz     :     0.051923
      dx2y2   :     0.051004
      dxy     :     0.047939
      f0      :     0.000244  f :     0.001989
      f+1     :     0.000106
      f-1     :     0.000271
      f+2     :     0.000134
      f-2     :     0.000362
      f+3     :     0.000517
      f-3     :     0.000355
  3 F s       :     3.565091  s :     3.565091
      pz      :     1.775583  p :     5.093281
      px      :     1.720769
      py      :     1.596929
      dz2     :     0.023536  d :     0.192940
      dxz     :     0.018538
      dyz     :     0.051923
      dx2y2   :     0.051004
      dxy     :     0.047939
      f0      :     0.000244  f :     0.001989
      f+1     :     0.000106
      f-1     :     0.000271
      f+2     :     0.000134
      f-2     :     0.000362
      f+3     :     0.000517
      f-3     :     0.000355

SPIN
  0 C s       :     0.079037  s :     0.079037
      pz      :     0.487285  p :     0.502982
      px      :     0.007849
      py      :     0.007848
      dz2     :     0.034002  d :     0.024728
      dxz     :    -0.003956
      dyz     :    -0.003954
      dx2y2   :    -0.000680
      dxy     :    -0.000684
      f0      :     0.002876  f :     0.008010
      f+1     :    -0.000468
      f-1     :    -0.000469
      f+2     :    -0.000151
      f-2     :    -0.000151
      f+3     :     0.006382
      f-3     :    -0.000009
  1 F s       :     0.011470  s :     0.011470
      pz      :     0.071226  p :     0.068663
      px      :    -0.001986
      py      :    -0.000577
      dz2     :     0.001737  d :     0.047623
      dxz     :     0.043649
      dyz     :    -0.000069
      dx2y2   :     0.002170
      dxy     :     0.000136
      f0      :     0.000170  f :     0.000628
      f+1     :     0.000073
      f-1     :     0.000000
      f+2     :     0.000353
      f-2     :    -0.000000
      f+3     :     0.000025
      f-3     :     0.000007
  2 F s       :     0.011470  s :     0.011470
      pz      :     0.071225  p :     0.068707
      px      :    -0.000926
      py      :    -0.001593
      dz2     :     0.001736  d :     0.047623
      dxz     :     0.010861
      dyz     :     0.032721
      dx2y2   :     0.000643
      dxy     :     0.001662
      f0      :     0.000170  f :     0.000628
      f+1     :     0.000019
      f-1     :     0.000055
      f+2     :     0.000088
      f-2     :     0.000265
      f+3     :     0.000025
      f-3     :     0.000007
  3 F s       :     0.011470  s :     0.011470
      pz      :     0.071225  p :     0.068707
      px      :    -0.000926
      py      :    -0.001593
      dz2     :     0.001736  d :     0.047623
      dxz     :     0.010861
      dyz     :     0.032721
      dx2y2   :     0.000643
      dxy     :     0.001662
      f0      :     0.000170  f :     0.000628
      f+1     :     0.000019
      f-1     :     0.000055
      f+2     :     0.000088
      f-2     :     0.000265
      f+3     :     0.000025
      f-3     :     0.000007


                      *****************************
                      * MAYER POPULATION ANALYSIS *
                      *****************************

  NA   - Mulliken gross atomic population
  ZA   - Total nuclear charge
  QA   - Mulliken gross atomic charge
  VA   - Mayer's total valence
  BVA  - Mayer's bonded valence
  FA   - Mayer's free valence

  ATOM       NA         ZA         QA         VA         BVA        FA
  0 C      5.4973     6.0000     0.5027     3.8475     3.1474     0.7000
  1 F      9.1675     9.0000    -0.1675     1.0802     1.0749     0.0053
  2 F      9.1676     9.0000    -0.1676     1.0801     1.0749     0.0053
  3 F      9.1676     9.0000    -0.1676     1.0801     1.0748     0.0053

  Mayer bond orders larger than 0.100000
B(  0-C ,  1-F ) :   1.0492 B(  0-C ,  2-F ) :   1.0491 B(  0-C ,  3-F ) :   1.0491 


-------
TIMINGS
-------

Total SCF time: 0 days 0 hours 0 min 14 sec 

Total time                  ....      14.427 sec
Sum of individual times     ....      13.523 sec  ( 93.7%)

Fock matrix formation       ....      11.486 sec  ( 79.6%)
  Split-RI-J                ....       1.460 sec  ( 12.7% of F)
  Chain of spheres X        ....       3.697 sec  ( 32.2% of F)
  XC integration            ....       2.516 sec  ( 21.9% of F)
    Basis function eval.    ....       0.149 sec  (  5.9% of XC)
    Density eval.           ....       0.192 sec  (  7.6% of XC)
    XC-Functional eval.     ....       0.083 sec  (  3.3% of XC)
    XC-Potential eval.      ....       0.359 sec  ( 14.3% of XC)
Diagonalization             ....       0.453 sec  (  3.1%)
Density matrix formation    ....       0.016 sec  (  0.1%)
Population analysis         ....       0.158 sec  (  1.1%)
Initial guess               ....       0.174 sec  (  1.2%)
Orbital Transformation      ....       0.000 sec  (  0.0%)
Orbital Orthonormalization  ....       0.000 sec  (  0.0%)
DIIS solution               ....       0.653 sec  (  4.5%)
Grid generation             ....       0.583 sec  (  4.0%)

Maximum memory used throughout the entire SCF-calculation: 63.1 MB


-------------------------------------------------------------------------------
                          DFT DISPERSION CORRECTION                            
                                                                               
                              DFTD3 V3.1  Rev 1                                
                              USING zero damping                               
-------------------------------------------------------------------------------
The omegaB97X-D3 functional is recognized. Fit by Chai et al.
Active option DFTDOPT                   ...         3   

molecular C6(AA) [au] = 165.836571 


            DFT-D V3
 parameters
 s6 scaling factor         :     1.0000 
 rs6 scaling factor        :     1.2810 
 s8 scaling factor         :     1.0000 
 rs8 scaling factor        :     1.0940 
 Damping factor alpha6     :    14.0000 
 Damping factor alpha8     :    16.0000 
 ad hoc parameters k1-k3   :    16.0000     1.3333    -4.0000 

 Edisp/kcal,au: -0.069062181356  -0.000110057580 
 E6   /kcal   :  -0.008925656 
 E8   /kcal   :  -0.060136525 
 % E8         :  87.075913224 

-------------------------   ----------------
Dispersion correction           -0.000110058
-------------------------   ----------------


-------------------------   --------------------
FINAL SINGLE POINT ENERGY      -337.612908485205
-------------------------   --------------------



           ************************************************************
           *        Program running with 18 parallel MPI-processes    *
           *              working on a common directory               *
           ************************************************************
------------------------------------------------------------------------------
                         ORCA SCF GRADIENT CALCULATION
------------------------------------------------------------------------------

 ... reading COSX grid (gridx3)
Gradient of the Kohn-Sham DFT energy:
Kohn-Sham wavefunction type      ... UKS
Hartree-Fock exchange scaling    ...    0.196
Number of operators              ...    2
Number of atoms                  ...    4
Basis set dimensions             ...  157
Integral neglect threshold       ... 2.5e-11
Integral primitive cutoff        ... 2.5e-12
SHARK Integral package           ... ON

Nuc. rep. gradient       (SHARK) ... done (  0.0 sec)
HCore & Overlap gradient (SHARK) ... done (  0.0 sec)
RI-J gradient            (SHARK) ... done (  0.2 sec)
COSX-gradient                    ... done (  0.4 sec)
Exchange-correlation gradient    ... done
Dispersion correction            ... done

------------------
CARTESIAN GRADIENT
------------------

WARNING: THERE ARE 3 CONSTRAINED CARTESIAN COORDINATES
   1   C   :    0.000086234   -0.000000048   -0.080489892
   2   F   :    0.010304565   -0.000000004    0.026992051
   3   F   :   -0.004964569    0.009837569    0.026925078
   4   F   :   -0.004964589   -0.009837597    0.026924906

Difference to translation invariance:
           :    0.0004616396   -0.0000000804    0.0003521440

Difference to rotation invariance:
           :    0.0000003546   -0.0002980210   -0.0000000194

Norm of the cartesian gradient     ...    0.0949007143
RMS gradient                       ...    0.0273954765
MAX gradient                       ...    0.0804898916

-------
TIMINGS
-------

Total SCF gradient time            ...        1.174 sec

One electron gradient       ....       0.013 sec  (  1.1%)
RI-J Coulomb gradient       ....       0.185 sec  ( 15.7%)
COSX gradient               ....       0.439 sec  ( 37.4%)
XC gradient                 ....       0.168 sec  ( 14.3%)

Maximum memory used throughout the entire SCFGRAD-calculation: 37.2 MB
------------------------------------------------------------------------------
                         ORCA GEOMETRY RELAXATION STEP
------------------------------------------------------------------------------

Reading the OPT-File                    .... done
Getting information on internals        .... done
Copying old internal coords+grads       .... done
Making the new internal coordinates     .... (new redundants).... done
Validating the new internal coordinates .... (new redundants).... done
Calculating the B-matrix                .... done
Calculating the G,G- and P matrices     .... done
Transforming gradient to internals      .... done
Projecting the internal gradient        .... done
Number of atoms                         ....   4
Number of internal coordinates          ....   7
Current Energy                          ....  -337.612908485 Eh
Current gradient norm                   ....     0.094900714 Eh/bohr
Maximum allowed component of the step   ....  0.300
Current trust radius                    ....  0.300
Evaluating the initial hessian          ....  (Almloef) done
Projecting the Hessian                  .... done
Forming the augmented Hessian           .... done
Diagonalizing the augmented Hessian     .... done
Last element of RFO vector              ....  0.999850531
Lowest eigenvalues of augmented Hessian:
 -0.000204848  0.684895726  0.684895726  0.685100574 1000.000000000
Length of the computed step             ....  0.017291744
The final length of the internal step   ....  0.017291744
Converting the step to cartesian space:
 Initial RMS(Int)=    0.0065356648
Transforming coordinates:
 Iter   0:  RMS(Cart)=    0.0049502137 RMS(Int)=    0.0065356643
 Iter   1:  RMS(Cart)=    0.0000000040 RMS(Int)=    0.0000000074
Imposing constraints:
 Iter   0:  RMS(Cart)=    0.0000000003 RMS(Int)=    0.0000000024
CONVERGED
done
Storing new coordinates                 .... done

                                .--------------------.
          ----------------------|Geometry convergence|-------------------------
          Item                value                   Tolerance       Converged
          ---------------------------------------------------------------------
          RMS gradient        0.0044775877            0.0001000000      NO
          MAX gradient        0.0071153570            0.0003000000      NO
          RMS step            0.0065356648            0.0020000000      NO
          MAX step            0.0103858576            0.0040000000      NO
          ........................................................
          Max(Bonds)      0.0055      Max(Angles)    0.00
          Max(Dihed)        0.00      Max(Improp)    0.00
          ---------------------------------------------------------------------

The optimization has not yet converged - more geometry cycles are needed


    ---------------------------------------------------------------------------
                         Redundant Internal Coordinates
                            (Angstroem and degrees)

        Definition                    Value    dE/dq     Step     New-Value
    ----------------------------------------------------------------------------
     1. B(F   1,C   0)                1.3150  0.006252 -0.0048    1.3102   
     2. B(F   2,C   0)                1.3150  0.007115 -0.0055    1.3095   
     3. B(F   3,C   0)                1.3150  0.007115 -0.0055    1.3095   
     4. A(F   2,C   0,F   3)          118.00  0.023166    0.00    118.00 C 
     5. A(F   1,C   0,F   2)          118.00  0.005795   -0.00    118.00 C 
     6. A(F   1,C   0,F   3)          118.00  0.005795    0.00    118.00 C 
     7. I(F   1,F   3,F   2,C   0)     24.28 -0.066888   -0.00     24.28   
    ----------------------------------------------------------------------------

         *************************************************************
         *                GEOMETRY OPTIMIZATION CYCLE   2            *
         *************************************************************
---------------------------------
CARTESIAN COORDINATES (ANGSTROEM)
---------------------------------
  C     -0.000170   -0.000000   -0.000564
  F      1.296607   -0.000000   -0.187428
  F     -0.648218    1.122464   -0.187404
  F     -0.648218   -1.122464   -0.187404

----------------------------
CARTESIAN COORDINATES (A.U.)
----------------------------
  NO LB      ZA    FRAG     MASS         X           Y           Z
   0 C     6.0000    0    12.011   -0.000322   -0.000000   -0.001066
   1 F     9.0000    0    18.998    2.450232   -0.000000   -0.354188
   2 F     9.0000    0    18.998   -1.224955    2.121150   -0.354141
   3 F     9.0000    0    18.998   -1.224955   -2.121150   -0.354141

--------------------------------
INTERNAL COORDINATES (ANGSTROEM)
--------------------------------
 C      0   0   0     0.000000000000     0.00000000     0.00000000
 F      1   0   0     1.310171058902     0.00000000     0.00000000
 F      1   2   0     1.309504044917   118.00000001     0.00000000
 F      1   2   3     1.309504040858   118.00000001   152.24082906

---------------------------
INTERNAL COORDINATES (A.U.)
---------------------------
 C      0   0   0     0.000000000000     0.00000000     0.00000000
 F      1   0   0     2.475864489914     0.00000000     0.00000000
 F      1   2   0     2.474604016155   118.00000001     0.00000000
 F      1   2   3     2.474604008485   118.00000001   152.24082906



           ************************************************************
           *        Program running with 18 parallel MPI-processes    *
           *              working on a common directory               *
           ************************************************************
------------------------------------------------------------------------------
                   ___                                                        
                  /   \      - P O W E R E D   B Y -                         
                 /     \                                                     
                 |  |  |   _    _      __       _____    __    __             
                 |  |  |  | |  | |    /  \     |  _  \  |  |  /  |          
                  \  \/   | |  | |   /    \    | | | |  |  | /  /          
                 / \  \   | |__| |  /  /\  \   | |_| |  |  |/  /          
                |  |  |   |  __  | /  /__\  \  |    /   |      \           
                |  |  |   | |  | | |   __   |  |    \   |  |\   \          
                \     /   | |  | | |  |  |  |  | |\  \  |  | \   \       
                 \___/    |_|  |_| |__|  |__|  |_| \__\ |__|  \__/        
                                                                              
                      - O R C A' S   B I G   F R I E N D -                    
                                      &                                       
                       - I N T E G R A L  F E E D E R -                       
                                                                              
 v1 FN, 2020, v2 2021                                                         
------------------------------------------------------------------------------


Reading SHARK input file /beegfs/scratch/ispackman/PFAS_EPR_calcs/benchmark/JChemEd_CF3_radical/CF3_radical_118.0_degrees_IN-PROGRESS/CF3_radical_118.0_degrees.SHARKINP.tmp ... ok
----------------------
SHARK INTEGRAL PACKAGE
----------------------

Number of atoms                             ...      4
Number of basis functions                   ...    157
Number of shells                            ...     55
Maximum angular momentum                    ...      3
Integral batch strategy                     ... SHARK/LIBINT Hybrid
RI-J (if used) integral strategy            ... SPLIT-RIJ (Revised 2003 algorithm where possible)
Printlevel                                  ...      1
Contraction scheme used                     ... SEGMENTED contraction
Coulomb Range Separation                    ... NOT USED
Exchange Range Separation                   ... Long Range
   Mu parameter                             ...  0.250000
   Scaling (regular/separated)              ...  0.195728  0.804272
Finite Nucleus Model                        ... NOT USED
Auxiliary Coulomb fitting basis             ... AVAILABLE
   # of basis functions in Aux-J            ...    196
   # of shells in Aux-J                     ...     60
   Maximum angular momentum in Aux-J        ...      4
Auxiliary J/K fitting basis                 ... NOT available
Auxiliary Correlation fitting basis         ... NOT available
Auxiliary 'external' fitting basis          ... NOT available
Integral threshold                          ...     2.500000e-11
Primitive cut-off                           ...     2.500000e-12
Primitive pair pre-selection threshold      ...     2.500000e-12

Calculating pre-screening integrals         ... done (  0.0 sec) Dimension = 55
Organizing shell pair data                  ... done (  0.0 sec)
Shell pair information
Total number of shell pairs                 ...      1540
Shell pairs after pre-screening             ...      1492
Total number of primitive shell pairs       ...      4274
Primitive shell pairs kept                  ...      3449
          la=0 lb=0:    276 shell pairs
          la=1 lb=0:    354 shell pairs
          la=1 lb=1:    120 shell pairs
          la=2 lb=0:    276 shell pairs
          la=2 lb=1:    180 shell pairs
          la=2 lb=2:     78 shell pairs
          la=3 lb=0:     90 shell pairs
          la=3 lb=1:     60 shell pairs
          la=3 lb=2:     48 shell pairs
          la=3 lb=3:     10 shell pairs

Calculating one electron integrals          ... done (  0.0 sec)
Calculating RI/J V-Matrix + Cholesky decomp.... done (  0.0 sec)
Calculating Nuclear repulsion               ... done (  0.0 sec) ENN=    122.724445086250 Eh

SHARK setup successfully completed in   0.3 seconds

Maximum memory used throughout the entire GTOINT-calculation: 15.2 MB


           ************************************************************
           *        Program running with 18 parallel MPI-processes    *
           *              working on a common directory               *
           ************************************************************

Diagonalization of the overlap matrix:
Smallest eigenvalue                        ... 2.688e-04
Time for diagonalization                   ...    0.008 sec
Threshold for overlap eigenvalues          ... 1.000e-08
Number of eigenvalues below threshold      ... 0
Time for construction of square roots      ...    0.017 sec
Total time needed                          ...    0.026 sec

-------------------
DFT GRID GENERATION
-------------------

General Integration Accuracy     IntAcc      ... 4.388
Radial Grid Type                 RadialGrid  ... OptM3 with GC (2021)
Angular Grid (max. ang.)         AngularGrid ... 4 (Lebedev-302)
Angular grid pruning method      GridPruning ... 4 (adaptive)
Weight generation scheme         WeightScheme... Becke
Basis function cutoff            BFCut       ... 1.0000e-11
Integration weight cutoff        WCut        ... 1.0000e-14
Angular grids for H and He will be reduced by one unit
Partially contracted basis set               ... off
Rotationally invariant grid construction     ... off

Total number of grid points                  ...    25771
Total number of batches                      ...      405
Average number of points per batch           ...       63
Average number of grid points per atom       ...     6443
Time for grid setup =    0.161 sec

--------------------
COSX GRID GENERATION
--------------------

GRIDX 1
-------
General Integration Accuracy     IntAcc      ... 3.816
Radial Grid Type                 RadialGrid  ... OptM3 with GC (2021)
Angular Grid (max. ang.)         AngularGrid ... 1 (Lebedev-50)
Angular grid pruning method      GridPruning ... 4 (adaptive)
Weight generation scheme         WeightScheme... Becke
Basis function cutoff            BFCut       ... 1.0000e-11
Integration weight cutoff        WCut        ... 1.0000e-14
Angular grids for H and He will be reduced by one unit
Partially contracted basis set               ... on
Rotationally invariant grid construction     ... off

Total number of grid points                  ...     3272
Total number of batches                      ...       52
Average number of points per batch           ...       62
Average number of grid points per atom       ...      818
UseSFitting                                  ... on

GRIDX 2
-------
General Integration Accuracy     IntAcc      ... 4.020
Radial Grid Type                 RadialGrid  ... OptM3 with GC (2021)
Angular Grid (max. ang.)         AngularGrid ... 2 (Lebedev-110)
Angular grid pruning method      GridPruning ... 4 (adaptive)
Weight generation scheme         WeightScheme... Becke
Basis function cutoff            BFCut       ... 1.0000e-11
Integration weight cutoff        WCut        ... 1.0000e-14
Angular grids for H and He will be reduced by one unit
Partially contracted basis set               ... on
Rotationally invariant grid construction     ... off

Total number of grid points                  ...     9149
Total number of batches                      ...      145
Average number of points per batch           ...       63
Average number of grid points per atom       ...     2287
UseSFitting                                  ... on

GRIDX 3
-------
General Integration Accuracy     IntAcc      ... 4.338
Radial Grid Type                 RadialGrid  ... OptM3 with GC (2021)
Angular Grid (max. ang.)         AngularGrid ... 3 (Lebedev-194)
Angular grid pruning method      GridPruning ... 4 (adaptive)
Weight generation scheme         WeightScheme... Becke
Basis function cutoff            BFCut       ... 1.0000e-11
Integration weight cutoff        WCut        ... 1.0000e-14
Angular grids for H and He will be reduced by one unit
Partially contracted basis set               ... on
Rotationally invariant grid construction     ... off

[...]
  VA   - Mayer's total valence
  BVA  - Mayer's bonded valence
  FA   - Mayer's free valence

  ATOM       NA         ZA         QA         VA         BVA        FA
  0 C      5.4924     6.0000     0.5076     3.8450     3.1457     0.6992
  1 F      9.1693     9.0000    -0.1693     1.0777     1.0724     0.0053
  2 F      9.1692     9.0000    -0.1692     1.0781     1.0728     0.0053
  3 F      9.1692     9.0000    -0.1692     1.0781     1.0728     0.0053

  Mayer bond orders larger than 0.100000
B(  0-C ,  1-F ) :   1.0482 B(  0-C ,  2-F ) :   1.0487 B(  0-C ,  3-F ) :   1.0487 


-------
TIMINGS
-------

Total SCF time: 0 days 0 hours 0 min 5 sec 

Total time                  ....       5.194 sec
Sum of individual times     ....       4.522 sec  ( 87.1%)

Fock matrix formation       ....       3.605 sec  ( 69.4%)
  Split-RI-J                ....       0.532 sec  ( 14.8% of F)
  Chain of spheres X        ....       1.528 sec  ( 42.4% of F)
  XC integration            ....       0.637 sec  ( 17.7% of F)
    Basis function eval.    ....       0.044 sec  (  7.0% of XC)
    Density eval.           ....       0.055 sec  (  8.7% of XC)
    XC-Functional eval.     ....       0.024 sec  (  3.8% of XC)
    XC-Potential eval.      ....       0.079 sec  ( 12.4% of XC)
Diagonalization             ....       0.135 sec  (  2.6%)
Density matrix formation    ....       0.008 sec  (  0.2%)
Population analysis         ....       0.131 sec  (  2.5%)
Initial guess               ....       0.021 sec  (  0.4%)
Orbital Transformation      ....       0.000 sec  (  0.0%)
Orbital Orthonormalization  ....       0.012 sec  (  0.2%)
DIIS solution               ....       0.101 sec  (  1.9%)
Grid generation             ....       0.521 sec  ( 10.0%)

Maximum memory used throughout the entire SCF-calculation: 63.1 MB


-------------------------------------------------------------------------------
                          DFT DISPERSION CORRECTION                            
                                                                               
                              DFTD3 V3.1  Rev 1                                
                              USING zero damping                               
-------------------------------------------------------------------------------
The omegaB97X-D3 functional is recognized. Fit by Chai et al.
Active option DFTDOPT                   ...         3   

molecular C6(AA) [au] = 165.824971 


            DFT-D V3
 parameters
 s6 scaling factor         :     1.0000 
 rs6 scaling factor        :     1.2810 
 s8 scaling factor         :     1.0000 
 rs8 scaling factor        :     1.0940 
 Damping factor alpha6     :    14.0000 
 Damping factor alpha8     :    16.0000 
 ad hoc parameters k1-k3   :    16.0000     1.3333    -4.0000 

 Edisp/kcal,au: -0.066468305542  -0.000105923976 
 E6   /kcal   :  -0.008576402 
 E8   /kcal   :  -0.057891903 
 % E8         :  87.097004637 

-------------------------   ----------------
Dispersion correction           -0.000105924
-------------------------   ----------------


-------------------------   --------------------
FINAL SINGLE POINT ENERGY      -337.613027580673
-------------------------   --------------------

                                *** OPTIMIZATION RUN DONE ***

                            ***************************************
                            *     ORCA property calculations      *
                            ***************************************

                                    ---------------------
                                    Active property flags
                                    ---------------------
   (+) Dipole Moment


------------------------------------------------------------------------------
                       ORCA ELECTRIC PROPERTIES CALCULATION
------------------------------------------------------------------------------

Dipole Moment Calculation                       ... on
Quadrupole Moment Calculation                   ... off
Polarizability Calculation                      ... off
GBWName                                         ... /beegfs/scratch/ispackman/PFAS_EPR_calcs/benchmark/JChemEd_CF3_radical/CF3_radical_118.0_degrees_IN-PROGRESS/CF3_radical_118.0_degrees.gbw
Electron density                                ... /beegfs/scratch/ispackman/PFAS_EPR_calcs/benchmark/JChemEd_CF3_radical/CF3_radical_118.0_degrees_IN-PROGRESS/CF3_radical_118.0_degrees.scfp
The origin for moment calculation is the CENTER OF MASS  = ( 0.000053, -0.000000 -0.292671)

-------------
DIPOLE MOMENT
-------------
                                X             Y             Z
Electronic contribution:     -0.00183       0.00000      -0.19012
Nuclear contribution   :     -0.00018       0.00000       0.09031
                        -----------------------------------------
Total Dipole Moment    :     -0.00201       0.00000      -0.09981
                        -----------------------------------------
Magnitude (a.u.)       :      0.09983
Magnitude (Debye)      :      0.25376



--------------------
Rotational spectrum 
--------------------
 
Rotational constants in cm-1:     0.350381     0.349993     0.176360 
Rotational constants in MHz : 10504.155873 10492.524624  5287.131669 

 Dipole components along the rotational axes: 
x,y,z [a.u.] :     0.002002     0.000000    -0.099813 
x,y,z [Debye]:     0.005088     0.000000    -0.253705 

 


           ************************************************************
           *        Program running with 18 parallel MPI-processes    *
           *              working on a common directory               *
           ************************************************************

-------------------------------------------------------------------------------
                               ORCA SCF HESSIAN
-------------------------------------------------------------------------------

                   --------- SHARK INITIALIZATION DONE ---------

Hessian of the Kohn-Sham DFT energy:
Kohn-Sham wavefunction type                      ... UKS
Hartree-Fock exchange scaling                    ...    0.196
Number of operators                              ...    2
Number of atoms                                  ...    4
Basis set dimensions                             ...  157
Integral neglect threshold                       ... 2.5e-11
Integral primitive cutoff                        ... 2.5e-12

Setting up DFT Hessian calculations              ... 

HESS GRID
---------

General Integration Accuracy     IntAcc      ... 4.629
Radial Grid Type                 RadialGrid  ... OptM3 with GC (2021)
Angular Grid (max. ang.)         AngularGrid ... 5 (Lebedev-434)
Angular grid pruning method      GridPruning ... 4 (adaptive)
Weight generation scheme         WeightScheme... Becke
Basis function cutoff            BFCut       ... 1.0000e-11
Integration weight cutoff        WCut        ... 1.0000e-14
Angular grids for H and He will be reduced by one unit
Partially contracted basis set               ... off
Rotationally invariant grid construction     ... off

Total number of grid points                  ...    39948
Total number of batches                      ...      627
Average number of points per batch           ...       63
Average number of grid points per atom       ...     9987

Building densities                               ... done   (      0.0 sec)
Calculating rho(r) on the grid                   ... done   (      0.1 sec)
Building xc-kernel on the grid                   ... done   (      0.1 sec)
                                                     done   (      0.6 sec)

Nuclear repulsion Hessian  (SHARK)               ... done   (      0.0 sec)

----------------------------------------------
Forming right-hand sides of CP-SCF equations     ...
----------------------------------------------
One electron integral derivatives  (SHARK)       ... done   (      0.0 sec)
Transforming the overlap derivative matrices     ... done   (      0.0 sec)
Making the Q(x) pseudodensities                  ... done   (      0.0 sec)
Adding the E*S(x)*S(y) terms to the Hessian      ... done   (      0.0 sec)
Calculating energy weighted overlap derivatives  ... done   (      0.0 sec)
Two electron integral derivatives (SHARK-RI)     ... done   (      2.5 sec)
Exchange-correlation integral derivatives        ... done   (      2.2 sec)
tr(F(y)Q(x)) contribution to the Hessian         ... done   (      0.0 sec)
Response fock operator R(S(x)) (SHARK-RIJCOSX)   ... done   (      0.9 sec)
XC Response fock operator R(S(x))                ... done   (      0.4 sec)
tr(F(y)S(x)) contribution to the Hessian         ... done   (      0.0 sec)
Transforming and finalizing RHSs                 ... done   (      0.1 sec)

----------------------------------------------
Solving the CP-SCF equations (RIJCOSX)           ...
----------------------------------------------
     CP-SCF ITERATION   0:   1.6650e-01 (   0.5 sec   0/ 12 done)
     CP-SCF ITERATION   1:   5.5515e-02 (   0.5 sec   0/ 12 done)
     CP-SCF ITERATION   2:   2.1030e-02 (   0.5 sec   0/ 12 done)
     CP-SCF ITERATION   3:   8.4519e-03 (   0.5 sec   0/ 12 done)
     CP-SCF ITERATION   4:   1.9935e-03 (   0.5 sec   0/ 12 done)
     CP-SCF ITERATION   5:   6.3980e-04 (   0.5 sec   1/ 12 done)
     CP-SCF ITERATION   6:   2.2955e-04 (   0.4 sec   5/ 12 done)
     CP-SCF ITERATION   7:   5.6646e-05 (   0.4 sec  12/ 12 done)
                    *** THE CP-SCF HAS CONVERGED ***

                                                 ... done   (      3.9 sec)
Forming perturbed density Hessian contributions  ... done   (      0.0 sec)
2nd integral derivative contribs (SHARK-RI)      ... done   (      6.5 sec)
Exchange-correlation Hessian                     ... done   (      0.8 sec)
Dispersion correction in the Hessian             ... done   (      0.1 sec)
Dipole derivatives                               ... (center of mass:  0.000053, -0.000000 -0.292671)done   (      0.1 sec)

Total SCF Hessian time: 0 days 0 hours 0 min 18 sec 

Writing the Hessian file to the disk             ... done


Maximum memory used throughout the entire SCFHESS-calculation: 139.3 MB

-----------------------
VIBRATIONAL FREQUENCIES
-----------------------

Scaling factor for frequencies =  1.000000000  (already applied!)

   0:         0.00 cm**-1
   1:         0.00 cm**-1
   2:         0.00 cm**-1
   3:         0.00 cm**-1
   4:         0.00 cm**-1
   5:         0.00 cm**-1
   6:       405.25 cm**-1
   7:       472.08 cm**-1
   8:       472.18 cm**-1
   9:       948.63 cm**-1
  10:      1375.06 cm**-1
  11:      1378.62 cm**-1


------------
NORMAL MODES
------------

These modes are the Cartesian displacements weighted by the diagonal matrix
M(i,i)=1/sqrt(m[i]) where m[i] is the mass of the displaced atom
Thus, these vectors are normalized but *not* orthogonal

                  0          1          2          3          4          5    
      0       0.000000   0.000000   0.000000   0.000000   0.000000   0.000000
      1       0.000000   0.000000   0.000000   0.000000   0.000000   0.000000
      2       0.000000   0.000000   0.000000   0.000000   0.000000   0.000000
      3       0.000000   0.000000   0.000000   0.000000   0.000000   0.000000
      4       0.000000   0.000000   0.000000   0.000000   0.000000   0.000000
      5       0.000000   0.000000   0.000000   0.000000   0.000000   0.000000
      6       0.000000   0.000000   0.000000   0.000000   0.000000   0.000000
      7       0.000000   0.000000   0.000000   0.000000   0.000000   0.000000
      8       0.000000   0.000000   0.000000   0.000000   0.000000   0.000000
      9       0.000000   0.000000   0.000000   0.000000   0.000000   0.000000
     10       0.000000   0.000000   0.000000   0.000000   0.000000   0.000000
     11       0.000000   0.000000   0.000000   0.000000   0.000000   0.000000
                  6          7          8          9         10         11    
      0       0.002167  -0.348850  -0.000059   0.004557   0.904331   0.000029
      1       0.000000   0.000059  -0.348866  -0.000000   0.000029  -0.904334
      2      -0.876289  -0.006361  -0.000001  -0.466240   0.002021   0.000000
      3       0.210281  -0.461155  -0.000078  -0.502610  -0.340126  -0.000011
      4      -0.000000  -0.000103   0.609199   0.000000  -0.000001   0.039254
      5       0.184691  -0.019836  -0.000003   0.098487   0.054501   0.000002
      6      -0.105825   0.340775   0.464264   0.249865  -0.115803  -0.131035
      7       0.177747   0.465092  -0.194240  -0.433679   0.132557   0.266248
      8       0.184660   0.011932  -0.018367   0.098141  -0.027888  -0.047590
      9      -0.105825   0.340931  -0.464149   0.249865  -0.115811   0.131027
     10      -0.177747  -0.465026  -0.194397   0.433679  -0.132574   0.266240
     11       0.184660   0.011926   0.018371   0.098141  -0.027891   0.047588


-----------
IR SPECTRUM
-----------

 Mode   freq       eps      Int      T**2         TX        TY        TZ
       cm**-1   L/(mol*cm) km/mol    a.u.
----------------------------------------------------------------------------
  6:    405.25   0.001087    5.50  0.000837  ( 0.000208  0.000000 -0.028936)
  7:    472.08   0.000555    2.80  0.000367  (-0.019152  0.000003 -0.000152)
  8:    472.18   0.000553    2.79  0.000365  (-0.000003 -0.019110 -0.000000)
  9:    948.63   0.000828    4.18  0.000272  ( 0.000631 -0.000000 -0.016492)
 10:   1375.06   0.071137  359.49  0.016144  ( 0.127059  0.000004  0.000131)
 11:   1378.62   0.071230  359.97  0.016124  ( 0.000004 -0.126979 -0.000000)

* The epsilon (eps) is given for a Dirac delta lineshape.
** The dipole moment derivative (T) already includes vibrational overlap.

The first frequency considered to be a vibration is 6
The total number of vibrations considered is 6


--------------------------
THERMOCHEMISTRY AT 298.15K
--------------------------

Temperature         ... 298.15 K
Pressure            ... 1.00 atm
Total Mass          ... 69.00 AMU

Throughout the following assumptions are being made:
  (1) The electronic state is orbitally nondegenerate
      but the spin degeneracy is treated
  (2) There are no thermally accessible electronically excited states
  (3) Hindered rotations indicated by low frequency modes are not
      treated as such but are treated as vibrations and this may
      cause some error
  (4) All equations used are the standard statistical mechanics
      equations for an ideal gas
  (5) All vibrations are strictly harmonic

freq.     405.25  E(vib)   ...       0.19 
freq.     472.08  E(vib)   ...       0.15 
freq.     472.18  E(vib)   ...       0.15 
freq.     948.63  E(vib)   ...       0.03 
freq.    1375.06  E(vib)   ...       0.01 
freq.    1378.62  E(vib)   ...       0.01 

------------
INNER ENERGY
------------

The inner energy is: U= E(el) + E(ZPE) + E(vib) + E(rot) + E(trans)
    E(el)   - is the total energy from the electronic structure calculation
              = E(kin-el) + E(nuc-el) + E(el-el) + E(nuc-nuc)
    E(ZPE)  - the the zero temperature vibrational energy from the frequency calculation
    E(vib)  - the the finite temperature correction to E(ZPE) due to population
              of excited vibrational states
    E(rot)  - is the rotational thermal energy
    E(trans)- is the translational thermal energy

Summary of contributions to the inner energy U:
Electronic energy                ...   -337.61302758 Eh
Zero point energy                ...      0.01150887 Eh       7.22 kcal/mol
Thermal vibrational correction   ...      0.00085669 Eh       0.54 kcal/mol
Thermal rotational correction    ...      0.00141627 Eh       0.89 kcal/mol
Thermal translational correction ...      0.00141627 Eh       0.89 kcal/mol
-----------------------------------------------------------------------
Total thermal energy                   -337.59782948 Eh


Summary of corrections to the electronic energy:
(perhaps to be used in another calculation)
Total thermal correction                  0.00368923 Eh       2.32 kcal/mol
Non-thermal (ZPE) correction              0.01150887 Eh       7.22 kcal/mol
-----------------------------------------------------------------------
Total correction                          0.01519810 Eh       9.54 kcal/mol


--------
ENTHALPY
--------

The enthalpy is H = U + kB*T
                kB is Boltzmann's constant
Total free energy                 ...   -337.59782948 Eh 
Thermal Enthalpy correction       ...      0.00094421 Eh       0.59 kcal/mol
-----------------------------------------------------------------------
Total Enthalpy                    ...   -337.59688527 Eh


Note: Rotational entropy computed according to Herzberg 
Infrared and Raman Spectra, Chapter V,1, Van Nostrand Reinhold, 1945 
Point Group:  Cs, Symmetry Number:   1  
Rotational constants in cm-1:     0.350381     0.349993     0.176360 

Vibrational entropy computed according to the QRRHO of S. Grimme
Chem.Eur.J. 2012 18 9955


-------
ENTROPY
-------

The entropy contributions are T*S = T*(S(el)+S(vib)+S(rot)+S(trans))
     S(el)   - electronic entropy
     S(vib)  - vibrational entropy
     S(rot)  - rotational entropy
     S(trans)- translational entropy
The entropies will be listed as multiplied by the temperature to get
units of energy

Electronic entropy                ...      0.00065446 Eh      0.41 kcal/mol
Vibrational entropy               ...      0.00121910 Eh      0.76 kcal/mol
Rotational entropy                ...      0.01132071 Eh      7.10 kcal/mol
Translational entropy             ...      0.01834582 Eh     11.51 kcal/mol
-----------------------------------------------------------------------
Final entropy term                ...      0.03154009 Eh     19.79 kcal/mol

In case the symmetry of your molecule has not been determined correctly
or in case you have a reason to use a different symmetry number we print 
out the resulting rotational entropy values for sn=1,12 :
 --------------------------------------------------------
|  sn= 1 | S(rot)=       0.01132071 Eh      7.10 kcal/mol|
|  sn= 2 | S(rot)=       0.01066626 Eh      6.69 kcal/mol|
|  sn= 3 | S(rot)=       0.01028342 Eh      6.45 kcal/mol|
|  sn= 4 | S(rot)=       0.01001180 Eh      6.28 kcal/mol|
|  sn= 5 | S(rot)=       0.00980111 Eh      6.15 kcal/mol|
|  sn= 6 | S(rot)=       0.00962897 Eh      6.04 kcal/mol|
|  sn= 7 | S(rot)=       0.00948342 Eh      5.95 kcal/mol|
|  sn= 8 | S(rot)=       0.00935734 Eh      5.87 kcal/mol|
|  sn= 9 | S(rot)=       0.00924614 Eh      5.80 kcal/mol|
|  sn=10 | S(rot)=       0.00914666 Eh      5.74 kcal/mol|
|  sn=11 | S(rot)=       0.00905667 Eh      5.68 kcal/mol|
|  sn=12 | S(rot)=       0.00897451 Eh      5.63 kcal/mol|
 --------------------------------------------------------


-------------------
GIBBS FREE ENERGY
-------------------

The Gibbs free energy is G = H - T*S

Total enthalpy                    ...   -337.59688527 Eh 
Total entropy correction          ...     -0.03154009 Eh    -19.79 kcal/mol
-----------------------------------------------------------------------
Final Gibbs free energy         ...   -337.62842536 Eh

For completeness - the Gibbs free energy minus the electronic energy
G-E(el)                           ...     -0.01539777 Eh     -9.66 kcal/mol


Timings for individual modules:

Sum of individual times         ...       89.572 sec (=   1.493 min)
GTO integral calculation        ...       10.838 sec (=   0.181 min)  12.1 %
SCF iterations                  ...       46.804 sec (=   0.780 min)  52.3 %
SCF Gradient evaluation         ...       10.487 sec (=   0.175 min)  11.7 %
Geometry relaxation             ...        0.174 sec (=   0.003 min)   0.2 %
Analytical frequency calculation...       21.269 sec (=   0.354 min)  23.7 %
                             ****ORCA TERMINATED NORMALLY****
TOTAL RUN TIME: 0 days 0 hours 1 minutes 40 seconds 591 msec

slurmID:    32260076
totalRuntime[s]:    100.628625217
