
                                 *****************
                                 * O   R   C   A *
                                 *****************

                                            #,                                       
                                            ###                                      
                                            ####                                     
                                            #####                                    
                                            ######                                   
                                           ########,                                 
                                     ,,################,,,,,                         
                               ,,#################################,,                 
                          ,,##########################################,,             
                       ,#########################################, ''#####,          
                    ,#############################################,,   '####,        
                  ,##################################################,,,,####,       
                ,###########''''           ''''###############################       
              ,#####''   ,,,,##########,,,,          '''####'''          '####       
            ,##' ,,,,###########################,,,                        '##       
           ' ,,###''''                  '''############,,,                           
         ,,##''                                '''############,,,,        ,,,,,,###''
      ,#''                                            '''#######################'''  
     '                                                          ''''####''''         
             ,#######,   #######,   ,#######,      ##                                
            ,#'     '#,  ##    ##  ,#'     '#,    #''#        ######   ,####,        
            ##       ##  ##   ,#'  ##            #'  '#       #        #'  '#        
            ##       ##  #######   ##           ,######,      #####,   #    #        
            '#,     ,#'  ##    ##  '#,     ,#' ,#      #,         ##   #,  ,#        
             '#######'   ##     ##  '#######'  #'      '#     #####' # '####'        



                  #######################################################
                  #                        -***-                        #
                  #          Department of theory and spectroscopy      #
                  #    Directorship and core code : Frank Neese         #
                  #        Max Planck Institute fuer Kohlenforschung    #
                  #                Kaiser Wilhelm Platz 1               #
                  #                 D-45470 Muelheim/Ruhr               #
                  #                      Germany                        #
                  #                                                     #
                  #                  All rights reserved                #
                  #                        -***-                        #
                  #######################################################


                         Program Version 5.0.4 -  RELEASE  -


 With contributions from (in alphabetic order):
   Daniel Aravena         : Magnetic Suceptibility
   Michael Atanasov       : Ab Initio Ligand Field Theory (pilot matlab implementation)
   Alexander A. Auer      : GIAO ZORA, VPT2 properties, NMR spectrum
   Ute Becker             : Parallelization
   Giovanni Bistoni       : ED, misc. LED, open-shell LED, HFLD
   Martin Brehm           : Molecular dynamics
   Dmytro Bykov           : SCF Hessian
   Vijay G. Chilkuri      : MRCI spin determinant printing, contributions to CSF-ICE
   Dipayan Datta          : RHF DLPNO-CCSD density
   Achintya Kumar Dutta   : EOM-CC, STEOM-CC
   Dmitry Ganyushin       : Spin-Orbit,Spin-Spin,Magnetic field MRCI
   Miquel Garcia          : C-PCM and meta-GGA Hessian, CC/C-PCM, Gaussian charge scheme
   Yang Guo               : DLPNO-NEVPT2, F12-NEVPT2, CIM, IAO-localization
   Andreas Hansen         : Spin unrestricted coupled pair/coupled cluster methods
   Benjamin Helmich-Paris : MC-RPA, TRAH-SCF, COSX integrals
   Lee Huntington         : MR-EOM, pCC
   Robert Izsak           : Overlap fitted RIJCOSX, COSX-SCS-MP3, EOM
   Marcus Kettner         : VPT2
   Christian Kollmar      : KDIIS, OOCD, Brueckner-CCSD(T), CCSD density, CASPT2, CASPT2-K
   Simone Kossmann        : Meta GGA functionals, TD-DFT gradient, OOMP2, MP2 Hessian
   Martin Krupicka        : Initial AUTO-CI
   Lucas Lang             : DCDCAS
   Marvin Lechner         : AUTO-CI (C++ implementation), FIC-MRCC
   Dagmar Lenk            : GEPOL surface, SMD
   Dimitrios Liakos       : Extrapolation schemes; Compound Job, initial MDCI parallelization
   Dimitrios Manganas     : Further ROCIS development; embedding schemes
   Dimitrios Pantazis     : SARC Basis sets
   Anastasios Papadopoulos: AUTO-CI, single reference methods and gradients
   Taras Petrenko         : DFT Hessian,TD-DFT gradient, ASA, ECA, R-Raman, ABS, FL, XAS/XES, NRVS
   Peter Pinski           : DLPNO-MP2, DLPNO-MP2 Gradient
   Christoph Reimann      : Effective Core Potentials
   Marius Retegan         : Local ZFS, SOC
   Christoph Riplinger    : Optimizer, TS searches, QM/MM, DLPNO-CCSD(T), (RO)-DLPNO pert. Triples
   Tobias Risthaus        : Range-separated hybrids, TD-DFT gradient, RPA, STAB
   Michael Roemelt        : Original ROCIS implementation
   Masaaki Saitow         : Open-shell DLPNO-CCSD energy and density
   Barbara Sandhoefer     : DKH picture change effects
   Avijit Sen             : IP-ROCIS
   Kantharuban Sivalingam : CASSCF convergence, NEVPT2, FIC-MRCI
   Bernardo de Souza      : ESD, SOC TD-DFT
   Georgi Stoychev        : AutoAux, RI-MP2 NMR, DLPNO-MP2 response
   Willem Van den Heuvel  : Paramagnetic NMR
   Boris Wezisla          : Elementary symmetry handling
   Frank Wennmohs         : Technical directorship


 We gratefully acknowledge several colleagues who have allowed us to
 interface, adapt or use parts of their codes:
   Stefan Grimme, W. Hujo, H. Kruse, P. Pracht,  : VdW corrections, initial TS optimization,
                  C. Bannwarth, S. Ehlert          DFT functionals, gCP, sTDA/sTD-DF
   Ed Valeev, F. Pavosevic, A. Kumar             : LibInt (2-el integral package), F12 methods
   Garnet Chan, S. Sharma, J. Yang, R. Olivares  : DMRG
   Ulf Ekstrom                                   : XCFun DFT Library
   Mihaly Kallay                                 : mrcc  (arbitrary order and MRCC methods)
   Jiri Pittner, Ondrej Demel                    : Mk-CCSD
   Frank Weinhold                                : gennbo (NPA and NBO analysis)
   Christopher J. Cramer and Donald G. Truhlar   : smd solvation model
   Lars Goerigk                                  : TD-DFT with DH, B97 family of functionals
   V. Asgeirsson, H. Jonsson                     : NEB implementation
   FAccTs GmbH                                   : IRC, NEB, NEB-TS, DLPNO-Multilevel, CI-OPT
                                                   MM, QMMM, 2- and 3-layer-ONIOM, Crystal-QMMM,
                                                   LR-CPCM, SF, NACMEs, symmetry and pop. for TD-DFT,
                                                   nearIR, NL-DFT gradient (VV10), updates on ESD,
                                                   ML-optimized integration grids
   S Lehtola, MJT Oliveira, MAL Marques          : LibXC Library
   Liviu Ungur et al                             : ANISO software


 Your calculation uses the libint2 library for the computation of 2-el integrals
 For citations please refer to: http://libint.valeyev.net

 Your ORCA version has been built with support for libXC version: 5.1.0
 For citations please refer to: https://tddft.org/programs/libxc/

 This ORCA versions uses:
   CBLAS   interface :  Fast vector & matrix operations
   LAPACKE interface :  Fast linear algebra routines
   SCALAPACK package :  Parallel linear algebra routines
   Shared memory     :  Shared parallel matrices
   BLAS/LAPACK       :  OpenBLAS 0.3.15  USE64BITINT DYNAMIC_ARCH NO_AFFINITY SkylakeX SINGLE_THREADED
        Core in use  :  SkylakeX
   Copyright (c) 2011-2014, The OpenBLAS Project


Your calculation utilizes the atom-pairwise dispersion correction
with the zero-damping scheme (D30)
Cite in your paper:
S.Grimme, J.Antony, S.Ehrlich and H.Krieg, J.Chem.Phys., 132, (2010), 154104 
   

XCFun DFT library Copyright 2009-2010 Ulf Ekstrom and contributors.
See http://admol.org/xcfun for more information.
This is free software; see the source code for copying conditions.
There is ABSOLUTELY NO WARRANTY; not even for MERCHANTABILITY or FITNESS FOR A PARTICULAR PURPOSE.
For details see the documentation.
Scientific users of this library should cite U. Ekstrom, L. Visscher, R. Bast, A. J. Thorvaldsen and K. Ruud;
J.Chem.Theor.Comp. 2010, DOI: 10.1021/ct100117s
XCFun Version 0.99 

================================================================================

----- Orbital basis set information -----
Your calculation utilizes the basis: def2-TZVPD
   F. Weigend and R. Ahlrichs, Phys. Chem. Chem. Phys. 7, 3297 (2005).
   D. Rappoport and F. Furche, J. Chem. Phys. 133 134105 (2010).

----- AuxJ basis set information -----
Your calculation utilizes the auxiliary basis: def2/J
   F. Weigend, Phys. Chem. Chem. Phys. 8, 1057 (2006).

================================================================================
                                        WARNINGS
                       Please study these warnings very carefully!
================================================================================


WARNING: Geometry Optimization
  ===> : Switching off AutoStart
         For restart on a previous wavefunction, please use MOREAD

INFO   : the flag for use of the SHARK integral package has been found!

================================================================================
                                       INPUT FILE
================================================================================
NAME = /beegfs/scratch/ispackman/PFAS_EPR_calcs/benchmark/JChemEd_CF3_radical/CF3_radical_113.5_degrees_IN-PROGRESS/CF3_radical_113.5_degrees.inp
|  1> ! UKS TightSCF wB97x-D3 def2-TZVPD xyzfile opt freq
|  2> 
|  3> # CF3 radical 113.5 degrees fixed
|  4> 
|  5> %maxcore 1000
|  6> %pal
|  7> nprocs 18
|  8> end
|  9> 
| 10> %geom Constraints
| 11>         { A * 0 * C }
| 12>     end
| 13> end
| 14> * xyz 0 2
| 15> C 0.00 0.00 0.00
| 16> F 1.2698429978 0.0000000000 -0.3416485926
| 17> F -0.6349214989 1.0997162949 -0.3416485926
| 18> F -0.6349214989 -1.0997162949 -0.3416485926
| 19> **                         ****END OF INPUT****
================================================================================

                       *****************************
                       * Geometry Optimization Run *
                       *****************************

Geometry optimization settings:
Update method            Update   .... BFGS
Choice of coordinates    CoordSys .... Z-matrix Internals
Initial Hessian          InHess   .... Almoef's Model

Convergence Tolerances:
Energy Change            TolE     ....  5.0000e-06 Eh
Max. Gradient            TolMAXG  ....  3.0000e-04 Eh/bohr
RMS Gradient             TolRMSG  ....  1.0000e-04 Eh/bohr
Max. Displacement        TolMAXD  ....  4.0000e-03 bohr
RMS Displacement         TolRMSD  ....  2.0000e-03 bohr
Strict Convergence                ....  False
------------------------------------------------------------------------------
                        ORCA OPTIMIZATION COORDINATE SETUP
------------------------------------------------------------------------------

The optimization will be done in new redundant internal coordinates
Making redundant internal coordinates   ...  (new redundants) done
Evaluating the initial hessian          ...  (Almloef) done
Evaluating the coordinates              ...  done
Calculating the B-matrix                .... done
Calculating the G-matrix                .... done
Diagonalizing the G-matrix              .... done
Imposing constraints:
 Iter   0:  RMS(Cart)=    0.0000000000 RMS(Int)=    0.0000000000
CONVERGED
Will constrain atom 0 coordinate 1 
Will constrain atom 0 coordinate 2 
Will constrain atom 1 coordinate 2 
The first mode is                       ....    1
The number of degrees of freedom        ....    6
Storing new coordinates                 .... done

    -----------------------------------------------------------------
                    Redundant Internal Coordinates


    -----------------------------------------------------------------
         Definition                    Initial Value    Approx d2E/dq
    -----------------------------------------------------------------
      1. B(F   1,C   0)                  1.3150         0.684896   
      2. B(F   2,C   0)                  1.3150         0.684896   
      3. B(F   3,C   0)                  1.3150         0.684896   
      4. A(F   2,C   0,F   3)          113.5000         0.440101 C 
      5. A(F   1,C   0,F   2)          113.5000         0.440101 C 
      6. A(F   1,C   0,F   3)          113.5000         0.440101 C 
      7. I(F   1,F   3,F   2,C   0)     43.3432         0.026615   
    -----------------------------------------------------------------

Number of atoms                         .... 4
Number of degrees of freedom            .... 7

         *************************************************************
         *                GEOMETRY OPTIMIZATION CYCLE   1            *
         *************************************************************
---------------------------------
CARTESIAN COORDINATES (ANGSTROEM)
---------------------------------
  C      0.000000    0.000000    0.000000
  F      1.269843    0.000000   -0.341649
  F     -0.634921    1.099716   -0.341649
  F     -0.634921   -1.099716   -0.341649

----------------------------
CARTESIAN COORDINATES (A.U.)
----------------------------
  NO LB      ZA    FRAG     MASS         X           Y           Z
   0 C     6.0000    0    12.011    0.000000    0.000000    0.000000
   1 F     9.0000    0    18.998    2.399655    0.000000   -0.645622
   2 F     9.0000    0    18.998   -1.199828    2.078163   -0.645622
   3 F     9.0000    0    18.998   -1.199828   -2.078163   -0.645622

--------------------------------
INTERNAL COORDINATES (ANGSTROEM)
--------------------------------
 C      0   0   0     0.000000000000     0.00000000     0.00000000
 F      1   0   0     1.314999999957     0.00000000     0.00000000
 F      1   2   0     1.314999999947   113.50000000     0.00000000
 F      1   2   3     1.314999999947   113.50000000   131.54431220

---------------------------
INTERNAL COORDINATES (A.U.)
---------------------------
 C      0   0   0     0.000000000000     0.00000000     0.00000000
 F      1   0   0     2.484989866025     0.00000000     0.00000000
 F      1   2   0     2.484989866006   113.50000000     0.00000000
 F      1   2   3     2.484989866006   113.50000000   131.54431220

---------------------
BASIS SET INFORMATION
---------------------
There are 2 groups of distinct atoms

 Group   1 Type C   : 12s6p3d1f contracted to 6s3p3d1f pattern {621111/411/111/1}
 Group   2 Type F   : 12s7p3d1f contracted to 6s4p3d1f pattern {621111/4111/111/1}

Atom   0C    basis set group =>   1
Atom   1F    basis set group =>   2
Atom   2F    basis set group =>   2
Atom   3F    basis set group =>   2
---------------------------------
AUXILIARY/J BASIS SET INFORMATION
---------------------------------
There are 2 groups of distinct atoms

 Group   1 Type C   : 12s5p4d2f1g contracted to 6s4p3d1f1g pattern {711111/2111/211/2/1}
 Group   2 Type F   : 12s5p4d2f1g contracted to 6s4p3d1f1g pattern {711111/2111/211/2/1}

Atom   0C    basis set group =>   1
Atom   1F    basis set group =>   2
Atom   2F    basis set group =>   2
Atom   3F    basis set group =>   2


           ************************************************************
           *        Program running with 18 parallel MPI-processes    *
           *              working on a common directory               *
           ************************************************************
------------------------------------------------------------------------------
                           ORCA GTO INTEGRAL CALCULATION
                           -- RI-GTO INTEGRALS CHOSEN --
------------------------------------------------------------------------------
------------------------------------------------------------------------------
                   ___                                                        
                  /   \      - P O W E R E D   B Y -                         
                 /     \                                                     
                 |  |  |   _    _      __       _____    __    __             
                 |  |  |  | |  | |    /  \     |  _  \  |  |  /  |          
                  \  \/   | |  | |   /    \    | | | |  |  | /  /          
                 / \  \   | |__| |  /  /\  \   | |_| |  |  |/  /          
                |  |  |   |  __  | /  /__\  \  |    /   |      \           
                |  |  |   | |  | | |   __   |  |    \   |  |\   \          
                \     /   | |  | | |  |  |  |  | |\  \  |  | \   \       
                 \___/    |_|  |_| |__|  |__|  |_| \__\ |__|  \__/        
                                                                              
                      - O R C A' S   B I G   F R I E N D -                    
                                      &                                       
                       - I N T E G R A L  F E E D E R -                       
                                                                              
 v1 FN, 2020, v2 2021                                                         
------------------------------------------------------------------------------


Reading SHARK input file /beegfs/scratch/ispackman/PFAS_EPR_calcs/benchmark/JChemEd_CF3_radical/CF3_radical_113.5_degrees_IN-PROGRESS/CF3_radical_113.5_degrees.SHARKINP.tmp ... ok
----------------------
SHARK INTEGRAL PACKAGE
----------------------

Number of atoms                             ...      4
Number of basis functions                   ...    157
Number of shells                            ...     55
Maximum angular momentum                    ...      3
Integral batch strategy                     ... SHARK/LIBINT Hybrid
RI-J (if used) integral strategy            ... SPLIT-RIJ (Revised 2003 algorithm where possible)
Printlevel                                  ...      1
Contraction scheme used                     ... SEGMENTED contraction
Coulomb Range Separation                    ... NOT USED
Exchange Range Separation                   ... Long Range
   Mu parameter                             ...  0.250000
   Scaling (regular/separated)              ...  0.195728  0.804272
Finite Nucleus Model                        ... NOT USED
Auxiliary Coulomb fitting basis             ... AVAILABLE
   # of basis functions in Aux-J            ...    196
   # of shells in Aux-J                     ...     60
   Maximum angular momentum in Aux-J        ...      4
Auxiliary J/K fitting basis                 ... NOT available
Auxiliary Correlation fitting basis         ... NOT available
Auxiliary 'external' fitting basis          ... NOT available
Integral threshold                          ...     2.500000e-11
Primitive cut-off                           ...     2.500000e-12
Primitive pair pre-selection threshold      ...     2.500000e-12

Calculating pre-screening integrals         ... done (  0.1 sec) Dimension = 55
Organizing shell pair data                  ... done (  0.0 sec)
Shell pair information
Total number of shell pairs                 ...      1540
Shell pairs after pre-screening             ...      1498
Total number of primitive shell pairs       ...      4274
Primitive shell pairs kept                  ...      3497
          la=0 lb=0:    282 shell pairs
          la=1 lb=0:    354 shell pairs
          la=1 lb=1:    120 shell pairs
          la=2 lb=0:    276 shell pairs
          la=2 lb=1:    180 shell pairs
          la=2 lb=2:     78 shell pairs
          la=3 lb=0:     90 shell pairs
          la=3 lb=1:     60 shell pairs
          la=3 lb=2:     48 shell pairs
          la=3 lb=3:     10 shell pairs

Calculating one electron integrals          ... done (  0.0 sec)
Calculating RI/J V-Matrix + Cholesky decomp.... done (  0.0 sec)
Calculating Nuclear repulsion               ... done (  0.0 sec) ENN=    123.656519697008 Eh

SHARK setup successfully completed in   0.3 seconds

Maximum memory used throughout the entire GTOINT-calculation: 15.2 MB


           ************************************************************
           *        Program running with 18 parallel MPI-processes    *
           *              working on a common directory               *
           ************************************************************
-------------------------------------------------------------------------------
                                 ORCA SCF
-------------------------------------------------------------------------------

------------
SCF SETTINGS
------------
Hamiltonian:
 Density Functional     Method          .... DFT(GTOs)
 Exchange Functional    Exchange        .... WB97X-D3
 Correlation Functional Correlation     .... WB97X-D3
 Gradients option       PostSCFGGA      .... off
 Hybrid DFT is turned on
   Fraction HF Exchange ScalHFX         ....  0.195728
   Scaling of DF-GGA-X  ScalDFX         ....  0.000000
   Scaling of DF-GGA-C  ScalDFC         ....  1.000000
   Scaling of DF-LDA-C  ScalLDAC        ....  1.000000
   Perturbative correction              ....  0.000000
   Density functional embedding theory  .... OFF
 Long-range corrected/Screened/Range-Separated Hybrid DFT is turned on
   Amount of maximum screened exact exchange              ....  0.804272
   Range separation parameter mu (erf(mu*r12)/r12)        ....  0.250000
 RI-approximation to the Coulomb term is turned on
   Number of AuxJ basis functions       .... 196
   RIJ-COSX (HFX calculated with COS-X)).... on


General Settings:
 Integral files         IntName         .... /beegfs/scratch/ispackman/PFAS_EPR_calcs/benchmark/JChemEd_CF3_radical/CF3_radical_113.5_degrees_IN-PROGRESS/CF3_radical_113.5_degrees
 Hartree-Fock type      HFTyp           .... UHF
 Total Charge           Charge          ....    0
 Multiplicity           Mult            ....    2
 Number of Electrons    NEL             ....   33
 Basis Dimension        Dim             ....  157
 Nuclear Repulsion      ENuc            ....    123.6565196970 Eh

Convergence Acceleration:
 DIIS                   CNVDIIS         .... on
   Start iteration      DIISMaxIt       ....    12
   Startup error        DIISStart       ....  0.200000
   # of expansion vecs  DIISMaxEq       ....     5
   Bias factor          DIISBfac        ....   1.050
   Max. coefficient     DIISMaxC        ....  10.000
 Trust-Rad. Augm. Hess. CNVTRAH         .... auto
   Auto Start mean grad. ratio tolernc. ....  1.125000
   Auto Start start iteration           ....    20
   Auto Start num. interpolation iter.  ....    10
   Max. Number of Micro iterations      ....    16
   Max. Number of Macro iterations      .... Maxiter - #DIIS iter
   Number of Davidson start vectors     ....     2
   Converg. threshold I  (grad. norm)   ....   1.000e-05
   Converg. threshold II (energy diff.) ....   1.000e-08
   Grad. Scal. Fac. for Micro threshold ....   0.100
   Minimum threshold for Micro iter.    ....   0.010
   NR start threshold (gradient norm)   ....   0.001
   Initial trust radius                 ....   0.400
   Minimum AH scaling param. (alpha)    ....   1.000
   Maximum AH scaling param. (alpha)    .... 1000.000
   Orbital update algorithm             .... Taylor
   White noise on init. David. guess    .... on
   Maximum white noise                  ....   0.010
   Quad. conv. algorithm                .... NR
 SOSCF                  CNVSOSCF        .... off
 Level Shifting         CNVShift        .... on
   Level shift para.    LevelShift      ....    0.2500
   Turn off err/grad.   ShiftErr        ....    0.0010
 Zerner damping         CNVZerner       .... off
 Static damping         CNVDamp         .... on
   Fraction old density DampFac         ....    0.7000
   Max. Damping (<1)    DampMax         ....    0.9800
   Min. Damping (>=0)   DampMin         ....    0.0000
   Turn off err/grad.   DampErr         ....    0.1000
 Fernandez-Rico         CNVRico         .... off

SCF Procedure:
 Maximum # iterations   MaxIter         ....   125
 SCF integral mode      SCFMode         .... Direct
   Integral package                     .... SHARK and LIBINT hybrid scheme
 Reset frequency        DirectResetFreq ....    20
 Integral Threshold     Thresh          ....  2.500e-11 Eh
 Primitive CutOff       TCut            ....  2.500e-12 Eh

Convergence Tolerance:
 Convergence Check Mode ConvCheckMode   .... Total+1el-Energy
 Convergence forced     ConvForced      .... 0
 Energy Change          TolE            ....  1.000e-08 Eh
 1-El. energy change                    ....  1.000e-05 Eh
 DIIS Error             TolErr          ....  5.000e-07


Diagonalization of the overlap matrix:
Smallest eigenvalue                        ... 2.987e-04
Time for diagonalization                   ...    0.008 sec
Threshold for overlap eigenvalues          ... 1.000e-08
Number of eigenvalues below threshold      ... 0
Time for construction of square roots      ...    0.019 sec
Total time needed                          ...    0.028 sec

Time for model grid setup =    0.078 sec

------------------------------
INITIAL GUESS: MODEL POTENTIAL
------------------------------
Loading Hartree-Fock densities                     ... done
Calculating cut-offs                               ... done
Initializing the effective Hamiltonian             ... done
Setting up the integral package (SHARK)            ... done
Starting the Coulomb interaction                   ... done (   0.1 sec)
Reading the grid                                   ... done
Mapping shells                                     ... done
Starting the XC term evaluation                    ... done (   0.0 sec)
  promolecular density results
     # of electrons  =     32.999518335
     EX              =    -35.094970576
     EC              =     -1.144298272
     EX+EC           =    -36.239268848
Transforming the Hamiltonian                       ... done (   0.0 sec)
Diagonalizing the Hamiltonian                      ... done (   0.0 sec)
Back transforming the eigenvectors                 ... done (   0.0 sec)
Now organizing SCF variables                       ... done
                      ------------------
                      INITIAL GUESS DONE (   0.2 sec)
                      ------------------
-------------------
DFT GRID GENERATION
-------------------

General Integration Accuracy     IntAcc      ... 4.388
Radial Grid Type                 RadialGrid  ... OptM3 with GC (2021)
Angular Grid (max. ang.)         AngularGrid ... 4 (Lebedev-302)
Angular grid pruning method      GridPruning ... 4 (adaptive)
Weight generation scheme         WeightScheme... Becke
Basis function cutoff            BFCut       ... 1.0000e-11
Integration weight cutoff        WCut        ... 1.0000e-14
Angular grids for H and He will be reduced by one unit
Partially contracted basis set               ... off
Rotationally invariant grid construction     ... off

Total number of grid points                  ...    25762
Total number of batches                      ...      404
Average number of points per batch           ...       63
Average number of grid points per atom       ...     6440
Time for grid setup =    0.150 sec

--------------------
COSX GRID GENERATION
--------------------

GRIDX 1
-------
General Integration Accuracy     IntAcc      ... 3.816
Radial Grid Type                 RadialGrid  ... OptM3 with GC (2021)
Angular Grid (max. ang.)         AngularGrid ... 1 (Lebedev-50)
Angular grid pruning method      GridPruning ... 4 (adaptive)
Weight generation scheme         WeightScheme... Becke
Basis function cutoff            BFCut       ... 1.0000e-11
Integration weight cutoff        WCut        ... 1.0000e-14
Angular grids for H and He will be reduced by one unit
Partially contracted basis set               ... on
Rotationally invariant grid construction     ... off

Total number of grid points                  ...     3269
Total number of batches                      ...       52
Average number of points per batch           ...       62
Average number of grid points per atom       ...      817
UseSFitting                                  ... on

GRIDX 2
-------
General Integration Accuracy     IntAcc      ... 4.020
Radial Grid Type                 RadialGrid  ... OptM3 with GC (2021)
Angular Grid (max. ang.)         AngularGrid ... 2 (Lebedev-110)
Angular grid pruning method      GridPruning ... 4 (adaptive)
Weight generation scheme         WeightScheme... Becke
Basis function cutoff            BFCut       ... 1.0000e-11
Integration weight cutoff        WCut        ... 1.0000e-14
Angular grids for H and He will be reduced by one unit
Partially contracted basis set               ... on
Rotationally invariant grid construction     ... off

Total number of grid points                  ...     9151
Total number of batches                      ...      145
Average number of points per batch           ...       63
Average number of grid points per atom       ...     2288
UseSFitting                                  ... on

GRIDX 3
-------
General Integration Accuracy     IntAcc      ... 4.338
Radial Grid Type                 RadialGrid  ... OptM3 with GC (2021)
Angular Grid (max. ang.)         AngularGrid ... 3 (Lebedev-194)
Angular grid pruning method      GridPruning ... 4 (adaptive)
Weight generation scheme         WeightScheme... Becke
Basis function cutoff            BFCut       ... 1.0000e-11
Integration weight cutoff        WCut        ... 1.0000e-14
Angular grids for H and He will be reduced by one unit
Partially contracted basis set               ... on
Rotationally invariant grid construction     ... off

Total number of grid points                  ...    19677
Total number of batches                      ...      310
Average number of points per batch           ...       63
Average number of grid points per atom       ...     4919
UseSFitting                                  ... on

Time for X-Grid setup             =    0.361 sec

--------------
SCF ITERATIONS
--------------
ITER       Energy         Delta-E        Max-DP      RMS-DP      [F,P]     Damp
               ***  Starting incremental Fock matrix formation  ***
  0   -337.5807040890   0.000000000000 0.01419629  0.00035359  0.0622455 0.7000
  1   -337.6018280121  -0.021123923075 0.00965771  0.00024113  0.0300183 0.7000
                               ***Turning on DIIS***
  2   -337.6110228764  -0.009194864245 0.01947762  0.00047872  0.0157987 0.0000
  3   -337.6281091725  -0.017086296114 0.00617075  0.00014171  0.0146481 0.0000
  4   -337.6306216692  -0.002512496717 0.00565443  0.00010230  0.0043177 0.0000
  5   -337.6309120041  -0.000290334943 0.00464506  0.00007106  0.0027865 0.0000
  6   -337.6310116996  -0.000099695492 0.00340743  0.00004964  0.0013687 0.0000
  7   -337.6310417905  -0.000030090842 0.00356374  0.00004688  0.0006654 0.0000
               *** Restarting incremental Fock matrix formation ***
                                   *** Resetting DIIS ***
  8   -337.6310532636  -0.000011473137 0.00071408  0.00000892  0.0000969 0.0000
  9   -337.6310534899  -0.000000226265 0.00014279  0.00000188  0.0000593 0.0000
 10   -337.6310535373  -0.000000047410 0.00009098  0.00000117  0.0000231 0.0000
 11   -337.6310535534  -0.000000016172 0.00002256  0.00000043  0.0000088 0.0000
 12   -337.6310535539  -0.000000000406 0.00001630  0.00000019  0.0000028 0.0000
                            ***DIIS convergence achieved***

               *****************************************************
               *                     SUCCESS                       *
               *           SCF CONVERGED AFTER  13 CYCLES          *
               *****************************************************

Old exchange energy                            =    -10.536324188 Eh
New exchange energy                            =    -10.536334763 Eh
Exchange energy change after final integration =     -0.000010575 Eh
Total energy after final integration           =   -337.631064127 Eh
Final COS-X integration done in                =     0.388 sec

----------------
TOTAL SCF ENERGY
----------------

Total Energy       :         -337.63106413 Eh           -9187.40833 eV

Components:
Nuclear Repulsion  :          123.65651970 Eh            3364.86497 eV
Electronic Energy  :         -461.28758382 Eh          -12552.27330 eV
One Electron Energy:         -714.07720479 Eh          -19431.02860 eV
Two Electron Energy:          252.78962097 Eh            6878.75530 eV
Max COSX asymmetry :            0.00000043 Eh               0.00001 eV

Virial components:
Potential Energy   :         -674.20445875 Eh          -18346.03602 eV
Kinetic Energy     :          336.57339463 Eh            9158.62768 eV
Virial Ratio       :            2.00314246


DFT components:
N(Alpha)           :       16.999863490029 electrons
N(Beta)            :       15.999917683900 electrons
N(Total)           :       32.999781173929 electrons
E(XC)              :      -26.189881071470 Eh       
DFET-embed. en.    :        0.000000000000 Eh       

---------------
SCF CONVERGENCE
---------------

  Last Energy change         ...    1.9257e-09  Tolerance :   1.0000e-08
  Last MAX-Density change    ...    0.0000e+00  Tolerance :   1.0000e-07
  Last RMS-Density change    ...    0.0000e+00  Tolerance :   5.0000e-09
  Last DIIS Error            ...    6.0119e-07  Tolerance :   5.0000e-07

             **** THE GBW FILE WAS UPDATED (/beegfs/scratch/ispackman/PFAS_EPR_calcs/benchmark/JChemEd_CF3_radical/CF3_radical_113.5_degrees_IN-PROGRESS/CF3_radical_113.5_degrees.gbw) ****
             **** DENSITY /beegfs/scratch/ispackman/PFAS_EPR_calcs/benchmark/JChemEd_CF3_radical/CF3_radical_113.5_degrees_IN-PROGRESS/CF3_radical_113.5_degrees.scfp WAS UPDATED ****
             **** ENERGY FILE WAS UPDATED (/beegfs/scratch/ispackman/PFAS_EPR_calcs/benchmark/JChemEd_CF3_radical/CF3_radical_113.5_degrees_IN-PROGRESS/CF3_radical_113.5_degrees.en.tmp) ****
----------------------
UHF SPIN CONTAMINATION
----------------------

Warning: in a DFT calculation there is little theoretical justification to 
         calculate <S**2> as in Hartree-Fock theory. We will do it anyways
         but you should keep in mind that the values have only limited relevance

Expectation value of <S**2>     :     0.751974
Ideal value S*(S+1) for S=0.5   :     0.750000
Deviation                       :     0.001974

             **** THE GBW FILE WAS UPDATED (/beegfs/scratch/ispackman/PFAS_EPR_calcs/benchmark/JChemEd_CF3_radical/CF3_radical_113.5_degrees_IN-PROGRESS/CF3_radical_113.5_degrees.gbw) ****
             **** DENSITY /beegfs/scratch/ispackman/PFAS_EPR_calcs/benchmark/JChemEd_CF3_radical/CF3_radical_113.5_degrees_IN-PROGRESS/CF3_radical_113.5_degrees.scfp WAS UPDATED ****
----------------
ORBITAL ENERGIES
----------------
                 SPIN UP ORBITALS
  NO   OCC          E(Eh)            E(eV) 
   0   1.0000     -24.855604      -676.3554 
   1   1.0000     -24.855595      -676.3551 
   2   1.0000     -24.855586      -676.3549 
   3   1.0000     -10.536597      -286.7154 
   4   1.0000      -1.468038       -39.9474 
   5   1.0000      -1.386065       -37.7167 
   6   1.0000      -1.386064       -37.7167 
   7   1.0000      -0.838610       -22.8197 
   8   1.0000      -0.734869       -19.9968 
   9   1.0000      -0.734867       -19.9968 
  10   1.0000      -0.700286       -19.0557 
  11   1.0000      -0.606969       -16.5165 
  12   1.0000      -0.606968       -16.5164 
  13   1.0000      -0.578342       -15.7375 
  14   1.0000      -0.578340       -15.7374 
  15   1.0000      -0.550916       -14.9912 
  16   1.0000      -0.356581        -9.7031 
  17   0.0000       0.068133         1.8540 
  18   0.0000       0.102862         2.7990 
  19   0.0000       0.102862         2.7990 
  20   0.0000       0.115555         3.1444 
  21   0.0000       0.156814         4.2671 
  22   0.0000       0.156814         4.2671 
  23   0.0000       0.174028         4.7355 
  24   0.0000       0.174028         4.7355 
  25   0.0000       0.177501         4.8300 
  26   0.0000       0.233239         6.3467 
  27   0.0000       0.237965         6.4754 
  28   0.0000       0.255936         6.9644 
  29   0.0000       0.255939         6.9645 
  30   0.0000       0.320523         8.7219 
  31   0.0000       0.363007         9.8779 
  32   0.0000       0.369410        10.0521 
  33   0.0000       0.369412        10.0522 
  34   0.0000       0.384438        10.4611 
  35   0.0000       0.384441        10.4612 
  36   0.0000       0.404004        10.9935 
  37   0.0000       0.428001        11.6465 
  38   0.0000       0.428002        11.6465 
  39   0.0000       0.482683        13.1345 
  40   0.0000       0.487850        13.2751 
  41   0.0000       0.487853        13.2752 
  42   0.0000       0.598873        16.2962 
  43   0.0000       0.663937        18.0667 
  44   0.0000       0.663938        18.0667 
  45   0.0000       0.669780        18.2256 
  46   0.0000       0.669781        18.2257 
  47   0.0000       0.700017        19.0484 
  48   0.0000       0.700017        19.0484 
  49   0.0000       0.715607        19.4727 
  50   0.0000       0.740153        20.1406 
  51   0.0000       0.745317        20.2811 
  52   0.0000       0.782482        21.2924 
  53   0.0000       0.782484        21.2925 
  54   0.0000       0.868361        23.6293 
  55   0.0000       0.870684        23.6925 
  56   0.0000       0.870686        23.6926 
  57   0.0000       0.957536        26.0559 
  58   0.0000       0.981382        26.7048 
  59   0.0000       0.981386        26.7049 
  60   0.0000       1.057252        28.7693 
  61   0.0000       1.057261        28.7695 
  62   0.0000       1.074568        29.2405 
  63   0.0000       1.156920        31.4814 
  64   0.0000       1.156921        31.4814 
  65   0.0000       1.164966        31.7003 
  66   0.0000       1.249644        34.0045 
  67   0.0000       1.263626        34.3850 
  68   0.0000       1.263634        34.3852 
  69   0.0000       1.283586        34.9282 
  70   0.0000       1.319366        35.9018 
  71   0.0000       1.319367        35.9018 
  72   0.0000       1.471513        40.0419 
  73   0.0000       1.471516        40.0420 
  74   0.0000       1.704521        46.3824 
  75   0.0000       2.109087        57.3912 
  76   0.0000       2.133603        58.0583 
  77   0.0000       2.133604        58.0583 
  78   0.0000       2.181871        59.3717 
  79   0.0000       2.211378        60.1747 
  80   0.0000       2.211379        60.1747 
  81   0.0000       2.294483        62.4361 
  82   0.0000       2.298967        62.5581 
  83   0.0000       2.350349        63.9562 
  84   0.0000       2.350354        63.9564 
  85   0.0000       2.531700        68.8911 
  86   0.0000       2.531715        68.8915 
  87   0.0000       2.561458        69.7008 
  88   0.0000       2.691213        73.2316 
  89   0.0000       2.691231        73.2321 
  90   0.0000       2.797931        76.1356 
  91   0.0000       2.953277        80.3627 
  92   0.0000       2.953284        80.3629 
  93   0.0000       3.135095        85.3103 
  94   0.0000       3.214932        87.4828 
  95   0.0000       3.214955        87.4834 
  96   0.0000       3.248351        88.3921 
  97   0.0000       3.333172        90.7002 
  98   0.0000       3.333188        90.7007 
  99   0.0000       3.339233        90.8652 
 100   0.0000       3.339254        90.8657 
 101   0.0000       3.391195        92.2791 
 102   0.0000       3.554704        96.7284 
 103   0.0000       3.554723        96.7289 
 104   0.0000       3.739902       101.7679 
 105   0.0000       3.839359       104.4743 
 106   0.0000       3.839428       104.4761 
 107   0.0000       3.878784       105.5471 
 108   0.0000       4.020288       109.3976 
 109   0.0000       4.020364       109.3997 
 110   0.0000       4.126021       112.2748 
 111   0.0000       4.126031       112.2750 
 112   0.0000       4.156768       113.1114 
 113   0.0000       4.230694       115.1230 
 114   0.0000       5.193149       141.3128 
 115   0.0000       5.427129       147.6797 
 116   0.0000       5.427160       147.6805 
 117   0.0000       6.892013       187.5412 
 118   0.0000       6.906077       187.9239 
 119   0.0000       6.906085       187.9241 
 120   0.0000       6.910128       188.0341 
 121   0.0000       6.910775       188.0518 
 122   0.0000       6.910828       188.0532 
 123   0.0000       6.918907       188.2730 
 124   0.0000       6.926911       188.4908 
 125   0.0000       6.926955       188.4920 
 126   0.0000       7.059197       192.0905 
 127   0.0000       7.093503       193.0240 
 128   0.0000       7.093506       193.0241 
 129   0.0000       7.171402       195.1438 
 130   0.0000       7.171444       195.1449 
 131   0.0000       7.257747       197.4933 
 132   0.0000       7.427816       202.1211 
 133   0.0000       7.427864       202.1225 
 134   0.0000       7.576844       206.1764 
 135   0.0000       7.666213       208.6083 
 136   0.0000       7.666238       208.6089 
 137   0.0000       7.841163       213.3689 
 138   0.0000       8.490042       231.0258 
 139   0.0000       8.502281       231.3588 
 140   0.0000       8.502353       231.3608 
 141   0.0000       8.573943       233.3088 
 142   0.0000       8.573958       233.3093 
 143   0.0000       8.598437       233.9754 
 144   0.0000       8.845987       240.7115 
 145   0.0000       8.845993       240.7117 
 146   0.0000       8.857902       241.0358 
 147   0.0000       8.913169       242.5397 
 148   0.0000       9.051840       246.3131 
 149   0.0000       9.051872       246.3140 
 150   0.0000       9.234781       251.2912 
 151   0.0000       9.370024       254.9713 
 152   0.0000       9.370031       254.9715 
 153   0.0000      22.892212       622.9288 
 154   0.0000      57.174258      1555.7906 
 155   0.0000      57.275872      1558.5557 
 156   0.0000      57.275893      1558.5563 

                 SPIN DOWN ORBITALS
  NO   OCC          E(Eh)            E(eV) 
   0   1.0000     -24.852597      -676.2735 
   1   1.0000     -24.852589      -676.2733 
   2   1.0000     -24.852574      -676.2729 
   3   1.0000     -10.523756      -286.3659 
   4   1.0000      -1.457788       -39.6684 
   5   1.0000      -1.377616       -37.4868 
   6   1.0000      -1.377615       -37.4868 
   7   1.0000      -0.820124       -22.3167 
   8   1.0000      -0.724939       -19.7266 
   9   1.0000      -0.724937       -19.7265 
  10   1.0000      -0.662739       -18.0341 
  11   1.0000      -0.596554       -16.2331 
  12   1.0000      -0.596554       -16.2331 
  13   1.0000      -0.568056       -15.4576 
  14   1.0000      -0.568053       -15.4575 
  15   1.0000      -0.547680       -14.9031 
  16   0.0000      -0.004777        -0.1300 
  17   0.0000       0.081020         2.2047 
  18   0.0000       0.106482         2.8975 
  19   0.0000       0.106482         2.8975 
  20   0.0000       0.131964         3.5909 
  21   0.0000       0.160162         4.3582 
  22   0.0000       0.160162         4.3582 
  23   0.0000       0.181288         4.9331 
  24   0.0000       0.181288         4.9331 
  25   0.0000       0.190703         5.1893 
  26   0.0000       0.240374         6.5409 
  27   0.0000       0.244454         6.6519 
  28   0.0000       0.272506         7.4153 
  29   0.0000       0.272508         7.4153 
  30   0.0000       0.329062         8.9542 
  31   0.0000       0.373697        10.1688 
  32   0.0000       0.383492        10.4354 
  33   0.0000       0.383492        10.4354 
  34   0.0000       0.393788        10.7155 
  35   0.0000       0.393791        10.7156 
  36   0.0000       0.417884        11.3712 
  37   0.0000       0.430022        11.7015 
  38   0.0000       0.430024        11.7016 
  39   0.0000       0.487671        13.2702 
  40   0.0000       0.487675        13.2703 
  41   0.0000       0.488546        13.2940 
  42   0.0000       0.606015        16.4905 
  43   0.0000       0.665389        18.1062 
  44   0.0000       0.665390        18.1062 
  45   0.0000       0.672067        18.2879 
  46   0.0000       0.672071        18.2880 
  47   0.0000       0.706232        19.2176 
  48   0.0000       0.706237        19.2177 
  49   0.0000       0.716275        19.4908 
  50   0.0000       0.744626        20.2623 
  51   0.0000       0.751383        20.4462 
  52   0.0000       0.784405        21.3447 
  53   0.0000       0.784406        21.3448 
  54   0.0000       0.870019        23.6744 
  55   0.0000       0.873922        23.7806 
  56   0.0000       0.873924        23.7807 
  57   0.0000       0.971177        26.4271 
  58   0.0000       0.991080        26.9687 
  59   0.0000       0.991085        26.9688 
  60   0.0000       1.060143        28.8480 
  61   0.0000       1.060147        28.8481 
  62   0.0000       1.077851        29.3298 
  63   0.0000       1.158571        31.5263 
  64   0.0000       1.158572        31.5264 
  65   0.0000       1.173399        31.9298 
  66   0.0000       1.259691        34.2779 
  67   0.0000       1.273445        34.6522 
  68   0.0000       1.273447        34.6522 
  69   0.0000       1.283730        34.9321 
  70   0.0000       1.326105        36.0851 
  71   0.0000       1.326116        36.0854 
  72   0.0000       1.479619        40.2625 
  73   0.0000       1.479623        40.2626 
  74   0.0000       1.758257        47.8446 
  75   0.0000       2.117004        57.6066 
  76   0.0000       2.141068        58.2614 
  77   0.0000       2.141103        58.2624 
  78   0.0000       2.183908        59.4272 
  79   0.0000       2.219665        60.4002 
  80   0.0000       2.219672        60.4004 
  81   0.0000       2.300967        62.6125 
  82   0.0000       2.315585        63.0103 
  83   0.0000       2.358108        64.1674 
  84   0.0000       2.358116        64.1676 
  85   0.0000       2.543420        69.2100 
  86   0.0000       2.543432        69.2103 
  87   0.0000       2.565245        69.8039 
  88   0.0000       2.705385        73.6173 
  89   0.0000       2.705390        73.6174 
  90   0.0000       2.812503        76.5321 
  91   0.0000       2.957387        80.4746 
  92   0.0000       2.957388        80.4746 
  93   0.0000       3.182402        86.5976 
  94   0.0000       3.232297        87.9553 
  95   0.0000       3.232308        87.9556 
  96   0.0000       3.266364        88.8823 
  97   0.0000       3.341525        90.9275 
  98   0.0000       3.341533        90.9277 
  99   0.0000       3.386670        92.1560 
 100   0.0000       3.386688        92.1565 
 101   0.0000       3.395763        92.4034 
 102   0.0000       3.590785        97.7102 
 103   0.0000       3.590838        97.7117 
 104   0.0000       3.768705       102.5517 
 105   0.0000       3.847261       104.6893 
 106   0.0000       3.847353       104.6918 
 107   0.0000       3.887861       105.7941 
 108   0.0000       4.038400       109.8905 
 109   0.0000       4.038407       109.8906 
 110   0.0000       4.130620       112.3999 
 111   0.0000       4.130630       112.4002 
 112   0.0000       4.167654       113.4076 
 113   0.0000       4.241429       115.4151 
 114   0.0000       5.206758       141.6831 
 115   0.0000       5.438687       147.9942 
 116   0.0000       5.438776       147.9966 
 117   0.0000       6.893762       187.5888 
 118   0.0000       6.910896       188.0550 
 119   0.0000       6.910898       188.0551 
 120   0.0000       6.915936       188.1922 
 121   0.0000       6.915984       188.1935 
 122   0.0000       6.916314       188.2025 
 123   0.0000       6.924161       188.4160 
 124   0.0000       6.930782       188.5962 
 125   0.0000       6.930827       188.5974 
 126   0.0000       7.062674       192.1851 
 127   0.0000       7.099475       193.1865 
 128   0.0000       7.099477       193.1866 
 129   0.0000       7.175382       195.2521 
 130   0.0000       7.175424       195.2532 
 131   0.0000       7.265623       197.7077 
 132   0.0000       7.437149       202.3751 
 133   0.0000       7.437188       202.3762 
 134   0.0000       7.586249       206.4323 
 135   0.0000       7.672175       208.7705 
 136   0.0000       7.672236       208.7722 
 137   0.0000       7.849430       213.5938 
 138   0.0000       8.496128       231.1914 
 139   0.0000       8.511626       231.6131 
 140   0.0000       8.511697       231.6150 
 141   0.0000       8.583715       233.5748 
 142   0.0000       8.583730       233.5752 
 143   0.0000       8.605363       234.1638 
 144   0.0000       8.854943       240.9553 
 145   0.0000       8.854946       240.9553 
 146   0.0000       8.869521       241.3519 
 147   0.0000       8.920294       242.7335 
 148   0.0000       9.056096       246.4289 
 149   0.0000       9.056122       246.4296 
 150   0.0000       9.241634       251.4776 
 151   0.0000       9.376403       255.1449 
 152   0.0000       9.376412       255.1451 
 153   0.0000      22.914945       623.5474 
 154   0.0000      57.177256      1555.8722 
 155   0.0000      57.278846      1558.6366 
 156   0.0000      57.278867      1558.6372 

                    ********************************
                    * MULLIKEN POPULATION ANALYSIS *
                    ********************************

--------------------------------------------
MULLIKEN ATOMIC CHARGES AND SPIN POPULATIONS
--------------------------------------------
   0 C :    0.522276    0.826021
   1 F :   -0.174055    0.057996
   2 F :   -0.174111    0.057992
   3 F :   -0.174110    0.057991
Sum of atomic charges         :    0.0000000
Sum of atomic spin populations:    1.0000000

-----------------------------------------------------
MULLIKEN REDUCED ORBITAL CHARGES AND SPIN POPULATIONS
-----------------------------------------------------
CHARGE
  0 C s       :     3.163563  s :     3.163563
      pz      :     0.928387  p :     1.967960
      px      :     0.519829
      py      :     0.519743
      dz2     :     0.044620  d :     0.306669
      dxz     :     0.051085
      dyz     :     0.051071
      dx2y2   :     0.079945
      dxy     :     0.079948
      f0      :     0.002942  f :     0.039531
      f+1     :     0.004096
      f-1     :     0.004096
      f+2     :     0.005220
      f-2     :     0.005220
      f+3     :     0.005354
      f-3     :     0.012604
  1 F s       :     3.955110  s :     3.955110
      pz      :     1.845466  p :     5.206367
      px      :     1.445397
      py      :     1.915504
      dz2     :     0.000628  d :     0.011783
      dxz     :     0.007197
      dyz     :     0.000073
      dx2y2   :     0.005580
      dxy     :    -0.001695
      f0      :     0.000078  f :     0.000795
      f+1     :     0.000159
      f-1     :     0.000007
      f+2     :     0.000158
      f-2     :     0.000022
      f+3     :     0.000228
      f-3     :     0.000142
  2 F s       :     3.955142  s :     3.955142
      pz      :     1.845460  p :     5.206393
      px      :     1.797999
      py      :     1.562935
      dz2     :     0.000627  d :     0.011780
      dxz     :     0.001855
      dyz     :     0.005416
      dx2y2   :     0.000122
      dxy     :     0.003761
      f0      :     0.000078  f :     0.000795
      f+1     :     0.000045
      f-1     :     0.000121
      f+2     :     0.000056
      f-2     :     0.000124
      f+3     :     0.000228
      f-3     :     0.000142
  3 F s       :     3.955142  s :     3.955142
      pz      :     1.845460  p :     5.206392
      px      :     1.797998
      py      :     1.562934
      dz2     :     0.000627  d :     0.011780
      dxz     :     0.001855
      dyz     :     0.005416
      dx2y2   :     0.000122
      dxy     :     0.003761
      f0      :     0.000078  f :     0.000795
      f+1     :     0.000045
      f-1     :     0.000121
      f+2     :     0.000056
      f-2     :     0.000124
      f+3     :     0.000228
      f-3     :     0.000143

SPIN
  0 C s       :     0.237053  s :     0.237053
      pz      :     0.554529  p :     0.575385
      px      :     0.010429
      py      :     0.010427
      dz2     :     0.018409  d :     0.014377
      dxz     :    -0.001627
      dyz     :    -0.001624
      dx2y2   :    -0.000396
      dxy     :    -0.000386
      f0      :    -0.000381  f :    -0.000794
      f+1     :    -0.000511
      f-1     :    -0.000512
      f+2     :    -0.000078
      f-2     :    -0.000076
      f+3     :     0.000690
      f-3     :     0.000074
  1 F s       :     0.003121  s :     0.003121
      pz      :     0.057143  p :     0.052708
      px      :    -0.003316
      py      :    -0.001119
      dz2     :     0.000226  d :     0.002123
      dxz     :     0.001249
      dyz     :     0.000007
      dx2y2   :     0.000640
      dxy     :     0.000001
      f0      :    -0.000002  f :     0.000044
      f+1     :     0.000026
      f-1     :    -0.000001
      f+2     :     0.000010
      f-2     :     0.000001
      f+3     :     0.000007
      f-3     :     0.000001
  2 F s       :     0.003131  s :     0.003131
      pz      :     0.057156  p :     0.052699
      px      :    -0.001674
      py      :    -0.002783
      dz2     :     0.000226  d :     0.002118
      dxz     :     0.000317
      dyz     :     0.000938
      dx2y2   :     0.000160
      dxy     :     0.000477
      f0      :    -0.000002  f :     0.000044
      f+1     :     0.000006
      f-1     :     0.000020
      f+2     :     0.000004
      f-2     :     0.000008
      f+3     :     0.000007
      f-3     :     0.000001
  3 F s       :     0.003130  s :     0.003130
      pz      :     0.057156  p :     0.052699
      px      :    -0.001674
      py      :    -0.002783
      dz2     :     0.000226  d :     0.002118
      dxz     :     0.000317
      dyz     :     0.000938
      dx2y2   :     0.000160
      dxy     :     0.000477
      f0      :    -0.000002  f :     0.000044
      f+1     :     0.000006
      f-1     :     0.000020
      f+2     :     0.000004
      f-2     :     0.000008
      f+3     :     0.000007
      f-3     :     0.000001


                     *******************************
                     * LOEWDIN POPULATION ANALYSIS *
                     *******************************

-------------------------------------------
LOEWDIN ATOMIC CHARGES AND SPIN POPULATIONS
-------------------------------------------
   0 C :   -0.420995    0.612899
   1 F :    0.140344    0.129037
   2 F :    0.140325    0.129032
   3 F :    0.140326    0.129032

----------------------------------------------------
LOEWDIN REDUCED ORBITAL CHARGES AND SPIN POPULATIONS
----------------------------------------------------
CHARGE
  0 C s       :     2.669918  s :     2.669918
      pz      :     0.822715  p :     2.225908
      px      :     0.701596
      py      :     0.701597
      dz2     :     0.171828  d :     1.269792
      dxz     :     0.189116
      dyz     :     0.189109
      dx2y2   :     0.359869
      dxy     :     0.359871
      f0      :     0.016266  f :     0.255377
      f+1     :     0.022482
      f-1     :     0.022482
      f+2     :     0.036226
      f-2     :     0.036226
      f+3     :     0.051073
      f-3     :     0.070623
  1 F s       :     3.565432  s :     3.565432
      pz      :     1.753040  p :     5.095973
      px      :     1.559376
      py      :     1.783557
      dz2     :     0.027289  d :     0.196329
      dxz     :     0.063347
      dyz     :     0.003758
      dx2y2   :     0.045287
      dxy     :     0.056648
      f0      :     0.000194  f :     0.001921
      f+1     :     0.000391
      f-1     :     0.000019
      f+2     :     0.000448
      f-2     :     0.000048
      f+3     :     0.000460
      f-3     :     0.000362
  2 F s       :     3.565434  s :     3.565434
      pz      :     1.753035  p :     5.095990
      px      :     1.727518
      py      :     1.615437
      dz2     :     0.027289  d :     0.196329
      dxz     :     0.018655
      dyz     :     0.048450
      dx2y2   :     0.053807
      dxy     :     0.048127
      f0      :     0.000194  f :     0.001921
      f+1     :     0.000112
      f-1     :     0.000298
      f+2     :     0.000148
      f-2     :     0.000348
      f+3     :     0.000460
      f-3     :     0.000362
  3 F s       :     3.565434  s :     3.565434
      pz      :     1.753035  p :     5.095990
      px      :     1.727518
      py      :     1.615437
      dz2     :     0.027289  d :     0.196329
      dxz     :     0.018655
      dyz     :     0.048450
      dx2y2   :     0.053807
      dxy     :     0.048127
      f0      :     0.000194  f :     0.001921
      f+1     :     0.000112
      f-1     :     0.000298
      f+2     :     0.000148
      f-2     :     0.000348
      f+3     :     0.000460
      f-3     :     0.000362

SPIN
  0 C s       :     0.117661  s :     0.117661
      pz      :     0.430964  p :     0.442737
      px      :     0.005887
      py      :     0.005887
      dz2     :     0.053228  d :     0.044390
      dxz     :    -0.003798
      dyz     :    -0.003797
      dx2y2   :    -0.000621
      dxy     :    -0.000622
      f0      :    -0.000098  f :     0.008111
      f+1     :    -0.000291
      f-1     :    -0.000292
      f+2     :    -0.000199
      f-2     :    -0.000197
      f+3     :     0.009187
      f-3     :     0.000001
  1 F s       :     0.014922  s :     0.014922
      pz      :     0.070152  p :     0.074887
      px      :     0.005409
      py      :    -0.000674
      dz2     :     0.004104  d :     0.038765
      dxz     :     0.033044
      dyz     :    -0.000090
      dx2y2   :     0.001660
      dxy     :     0.000048
      f0      :     0.000064  f :     0.000463
      f+1     :     0.000172
      f-1     :     0.000000
      f+2     :     0.000208
      f-2     :     0.000001
      f+3     :     0.000014
      f-3     :     0.000005
  2 F s       :     0.014921  s :     0.014921
      pz      :     0.070164  p :     0.074882
      px      :     0.000843
      py      :     0.003875
      dz2     :     0.004105  d :     0.038765
      dxz     :     0.008193
      dyz     :     0.024759
      dx2y2   :     0.000451
      dxy     :     0.001257
      f0      :     0.000064  f :     0.000463
      f+1     :     0.000043
      f-1     :     0.000129
      f+2     :     0.000053
      f-2     :     0.000156
      f+3     :     0.000014
      f-3     :     0.000005
  3 F s       :     0.014921  s :     0.014921
      pz      :     0.070164  p :     0.074882
      px      :     0.000843
      py      :     0.003875
      dz2     :     0.004105  d :     0.038765
      dxz     :     0.008193
      dyz     :     0.024759
      dx2y2   :     0.000451
      dxy     :     0.001257
      f0      :     0.000064  f :     0.000463
      f+1     :     0.000043
      f-1     :     0.000129
      f+2     :     0.000053
      f-2     :     0.000156
      f+3     :     0.000014
      f-3     :     0.000005


                      *****************************
                      * MAYER POPULATION ANALYSIS *
                      *****************************

  NA   - Mulliken gross atomic population
  ZA   - Total nuclear charge
  QA   - Mulliken gross atomic charge
  VA   - Mayer's total valence
  BVA  - Mayer's bonded valence
  FA   - Mayer's free valence

  ATOM       NA         ZA         QA         VA         BVA        FA
  0 C      5.4777     6.0000     0.5223     3.8233     3.1527     0.6706
  1 F      9.1741     9.0000    -0.1741     1.0819     1.0780     0.0039
  2 F      9.1741     9.0000    -0.1741     1.0818     1.0779     0.0039
  3 F      9.1741     9.0000    -0.1741     1.0818     1.0779     0.0039

  Mayer bond orders larger than 0.100000
B(  0-C ,  1-F ) :   1.0510 B(  0-C ,  2-F ) :   1.0509 B(  0-C ,  3-F ) :   1.0509 


-------
TIMINGS
-------

Total SCF time: 0 days 0 hours 0 min 12 sec 

Total time                  ....      12.203 sec
Sum of individual times     ....      11.275 sec  ( 92.4%)

Fock matrix formation       ....       9.457 sec  ( 77.5%)
  Split-RI-J                ....       1.223 sec  ( 12.9% of F)
  Chain of spheres X        ....       3.081 sec  ( 32.6% of F)
  XC integration            ....       1.993 sec  ( 21.1% of F)
    Basis function eval.    ....       0.124 sec  (  6.2% of XC)
    Density eval.           ....       0.162 sec  (  8.1% of XC)
    XC-Functional eval.     ....       0.068 sec  (  3.4% of XC)
    XC-Potential eval.      ....       0.306 sec  ( 15.4% of XC)
Diagonalization             ....       0.421 sec  (  3.4%)
Density matrix formation    ....       0.016 sec  (  0.1%)
Population analysis         ....       0.142 sec  (  1.2%)
Initial guess               ....       0.133 sec  (  1.1%)
Orbital Transformation      ....       0.000 sec  (  0.0%)
Orbital Orthonormalization  ....       0.000 sec  (  0.0%)
DIIS solution               ....       0.518 sec  (  4.2%)
Grid generation             ....       0.588 sec  (  4.8%)

Maximum memory used throughout the entire SCF-calculation: 63.2 MB


-------------------------------------------------------------------------------
                          DFT DISPERSION CORRECTION                            
                                                                               
                              DFTD3 V3.1  Rev 1                                
                              USING zero damping                               
-------------------------------------------------------------------------------
The omegaB97X-D3 functional is recognized. Fit by Chai et al.
Active option DFTDOPT                   ...         3   

molecular C6(AA) [au] = 165.787189 


            DFT-D V3
 parameters
 s6 scaling factor         :     1.0000 
 rs6 scaling factor        :     1.2810 
 s8 scaling factor         :     1.0000 
 rs8 scaling factor        :     1.0940 
 Damping factor alpha6     :    14.0000 
 Damping factor alpha8     :    16.0000 
 ad hoc parameters k1-k3   :    16.0000     1.3333    -4.0000 

 Edisp/kcal,au: -0.057246022554  -0.000091227334 
 E6   /kcal   :  -0.007345882 
 E8   /kcal   :  -0.049900141 
 % E8         :  87.167873841 

-------------------------   ----------------
Dispersion correction           -0.000091227
-------------------------   ----------------


-------------------------   --------------------
FINAL SINGLE POINT ENERGY      -337.631155354351
-------------------------   --------------------



           ************************************************************
           *        Program running with 18 parallel MPI-processes    *
           *              working on a common directory               *
           ************************************************************
------------------------------------------------------------------------------
                         ORCA SCF GRADIENT CALCULATION
------------------------------------------------------------------------------

 ... reading COSX grid (gridx3)
Gradient of the Kohn-Sham DFT energy:
Kohn-Sham wavefunction type      ... UKS
Hartree-Fock exchange scaling    ...    0.196
Number of operators              ...    2
Number of atoms                  ...    4
Basis set dimensions             ...  157
Integral neglect threshold       ... 2.5e-11
Integral primitive cutoff        ... 2.5e-12
SHARK Integral package           ... ON

Nuc. rep. gradient       (SHARK) ... done (  0.0 sec)
HCore & Overlap gradient (SHARK) ... done (  0.0 sec)
RI-J gradient            (SHARK) ... done (  0.1 sec)
COSX-gradient                    ... done (  0.4 sec)
Exchange-correlation gradient    ... done
Dispersion correction            ... done

------------------
CARTESIAN GRADIENT
------------------

WARNING: THERE ARE 3 CONSTRAINED CARTESIAN COORDINATES
   1   C   :   -0.000163187   -0.000000006   -0.025923515
   2   F   :    0.005980492    0.000000171    0.008554849
   3   F   :   -0.002770355    0.004578539    0.008645822
   4   F   :   -0.002770211   -0.004578603    0.008645772

Difference to translation invariance:
           :    0.0002767395    0.0000001005   -0.0000770722

Difference to rotation invariance:
           :    0.0000001715   -0.0000657810    0.0000007849

Norm of the cartesian gradient     ...    0.0314290017
RMS gradient                       ...    0.0090727713
MAX gradient                       ...    0.0259235149

-------
TIMINGS
-------

Total SCF gradient time            ...        1.108 sec

One electron gradient       ....       0.012 sec  (  1.1%)
RI-J Coulomb gradient       ....       0.144 sec  ( 13.0%)
COSX gradient               ....       0.433 sec  ( 39.1%)
XC gradient                 ....       0.172 sec  ( 15.6%)

Maximum memory used throughout the entire SCFGRAD-calculation: 37.2 MB
------------------------------------------------------------------------------
                         ORCA GEOMETRY RELAXATION STEP
------------------------------------------------------------------------------

Reading the OPT-File                    .... done
Getting information on internals        .... done
Copying old internal coords+grads       .... done
Making the new internal coordinates     .... (new redundants).... done
Validating the new internal coordinates .... (new redundants).... done
Calculating the B-matrix                .... done
Calculating the G,G- and P matrices     .... done
Transforming gradient to internals      .... done
Projecting the internal gradient        .... done
Number of atoms                         ....   4
Number of internal coordinates          ....   7
Current Energy                          ....  -337.631155354 Eh
Current gradient norm                   ....     0.031429002 Eh/bohr
Maximum allowed component of the step   ....  0.300
Current trust radius                    ....  0.300
Evaluating the initial hessian          ....  (Almloef) done
Projecting the Hessian                  .... done
Forming the augmented Hessian           .... done
Diagonalizing the augmented Hessian     .... done
Last element of RFO vector              ....  0.999968560
Lowest eigenvalues of augmented Hessian:
 -0.000043071  0.684895726  0.684895726  0.684938797 1000.000000000
Length of the computed step             ....  0.007929910
The final length of the internal step   ....  0.007929910
Converting the step to cartesian space:
 Initial RMS(Int)=    0.0029972242
Transforming coordinates:
 Iter   0:  RMS(Cart)=    0.0022279974 RMS(Int)=    0.0029972235
 Iter   1:  RMS(Cart)=    0.0000000030 RMS(Int)=    0.0000000055
Imposing constraints:
 Iter   0:  RMS(Cart)=    0.0000000002 RMS(Int)=    0.0000000008
CONVERGED
done
Storing new coordinates                 .... done

                                .--------------------.
          ----------------------|Geometry convergence|-------------------------
          Item                value                   Tolerance       Converged
          ---------------------------------------------------------------------
          RMS gradient        0.0020529151            0.0001000000      NO
          MAX gradient        0.0034771181            0.0003000000      NO
          RMS step            0.0029972242            0.0020000000      NO
          MAX step            0.0050765384            0.0040000000      NO
          ........................................................
          Max(Bonds)      0.0027      Max(Angles)    0.00
          Max(Dihed)        0.00      Max(Improp)    0.00
          ---------------------------------------------------------------------

The optimization has not yet converged - more geometry cycles are needed


    ---------------------------------------------------------------------------
                         Redundant Internal Coordinates
                            (Angstroem and degrees)

        Definition                    Value    dE/dq     Step     New-Value
    ----------------------------------------------------------------------------
     1. B(F   1,C   0)                1.3150  0.003477 -0.0027    1.3123   
     2. B(F   2,C   0)                1.3150  0.002950 -0.0023    1.3127   
     3. B(F   3,C   0)                1.3150  0.002951 -0.0023    1.3127   
     4. A(F   2,C   0,F   3)          113.50  0.012488    0.00    113.50 C 
     5. A(F   1,C   0,F   2)          113.50  0.004403    0.00    113.50 C 
     6. A(F   1,C   0,F   3)          113.50  0.004404    0.00    113.50 C 
     7. I(F   1,F   3,F   2,C   0)     43.34 -0.020822   -0.00     43.34   
    ----------------------------------------------------------------------------

         *************************************************************
         *                GEOMETRY OPTIMIZATION CYCLE   2            *
         *************************************************************
---------------------------------
CARTESIAN COORDINATES (ANGSTROEM)
---------------------------------
  C      0.000109   -0.000000   -0.000471
  F      1.267344   -0.000000   -0.341472
  F     -0.633726    1.097810   -0.341501
  F     -0.633726   -1.097810   -0.341501

----------------------------
CARTESIAN COORDINATES (A.U.)
----------------------------
  NO LB      ZA    FRAG     MASS         X           Y           Z
   0 C     6.0000    0    12.011    0.000205   -0.000000   -0.000889
   1 F     9.0000    0    18.998    2.394932   -0.000000   -0.645289
   2 F     9.0000    0    18.998   -1.197569    2.074560   -0.645344
   3 F     9.0000    0    18.998   -1.197569   -2.074560   -0.645344

--------------------------------
INTERNAL COORDINATES (ANGSTROEM)
--------------------------------
 C      0   0   0     0.000000000000     0.00000000     0.00000000
 F      1   0   0     1.312313611516     0.00000000     0.00000000
 F      1   2   0     1.312720484046   113.49999999     0.00000000
 F      1   2   3     1.312720462816   113.49999999   131.54431215

---------------------------
INTERNAL COORDINATES (A.U.)
---------------------------
 C      0   0   0     0.000000000000     0.00000000     0.00000000
 F      1   0   0     2.479913327582     0.00000000     0.00000000
 F      1   2   0     2.480682205236   113.49999999     0.00000000
 F      1   2   3     2.480682165116   113.49999999   131.54431215



           ************************************************************
           *        Program running with 18 parallel MPI-processes    *
           *              working on a common directory               *
           ************************************************************
------------------------------------------------------------------------------
                   ___                                                        
                  /   \      - P O W E R E D   B Y -                         
                 /     \                                                     
                 |  |  |   _    _      __       _____    __    __             
                 |  |  |  | |  | |    /  \     |  _  \  |  |  /  |          
                  \  \/   | |  | |   /    \    | | | |  |  | /  /          
                 / \  \   | |__| |  /  /\  \   | |_| |  |  |/  /          
                |  |  |   |  __  | /  /__\  \  |    /   |      \           
                |  |  |   | |  | | |   __   |  |    \   |  |\   \          
                \     /   | |  | | |  |  |  |  | |\  \  |  | \   \       
                 \___/    |_|  |_| |__|  |__|  |_| \__\ |__|  \__/        
                                                                              
                      - O R C A' S   B I G   F R I E N D -                    
                                      &                                       
                       - I N T E G R A L  F E E D E R -                       
                                                                              
 v1 FN, 2020, v2 2021                                                         
------------------------------------------------------------------------------


Reading SHARK input file /beegfs/scratch/ispackman/PFAS_EPR_calcs/benchmark/JChemEd_CF3_radical/CF3_radical_113.5_degrees_IN-PROGRESS/CF3_radical_113.5_degrees.SHARKINP.tmp ... ok
----------------------
SHARK INTEGRAL PACKAGE
----------------------

Number of atoms                             ...      4
Number of basis functions                   ...    157
Number of shells                            ...     55
Maximum angular momentum                    ...      3
Integral batch strategy                     ... SHARK/LIBINT Hybrid
RI-J (if used) integral strategy            ... SPLIT-RIJ (Revised 2003 algorithm where possible)
Printlevel                                  ...      1
Contraction scheme used                     ... SEGMENTED contraction
Coulomb Range Separation                    ... NOT USED
Exchange Range Separation                   ... Long Range
   Mu parameter                             ...  0.250000
   Scaling (regular/separated)              ...  0.195728  0.804272
Finite Nucleus Model                        ... NOT USED
Auxiliary Coulomb fitting basis             ... AVAILABLE
   # of basis functions in Aux-J            ...    196
   # of shells in Aux-J                     ...     60
   Maximum angular momentum in Aux-J        ...      4
Auxiliary J/K fitting basis                 ... NOT available
Auxiliary Correlation fitting basis         ... NOT available
Auxiliary 'external' fitting basis          ... NOT available
Integral threshold                          ...     2.500000e-11
Primitive cut-off                           ...     2.500000e-12
Primitive pair pre-selection threshold      ...     2.500000e-12

Calculating pre-screening integrals         ... done (  0.0 sec) Dimension = 55
Organizing shell pair data                  ... done (  0.0 sec)
Shell pair information
Total number of shell pairs                 ...      1540
Shell pairs after pre-screening             ...      1504
Total number of primitive shell pairs       ...      4274
Primitive shell pairs kept                  ...      3527
          la=0 lb=0:    282 shell pairs
          la=1 lb=0:    354 shell pairs
          la=1 lb=1:    120 shell pairs
          la=2 lb=0:    276 shell pairs
          la=2 lb=1:    180 shell pairs
          la=2 lb=2:     78 shell pairs
          la=3 lb=0:     96 shell pairs
          la=3 lb=1:     60 shell pairs
          la=3 lb=2:     48 shell pairs
          la=3 lb=3:     10 shell pairs

Calculating one electron integrals          ... done (  0.0 sec)
Calculating RI/J V-Matrix + Cholesky decomp.... done (  0.0 sec)
Calculating Nuclear repulsion               ... done (  0.0 sec) ENN=    123.884048358382 Eh

SHARK setup successfully completed in   0.3 seconds

Maximum memory used throughout the entire GTOINT-calculation: 15.2 MB


           ************************************************************
           *        Program running with 18 parallel MPI-processes    *
           *              working on a common directory               *
           ************************************************************

Diagonalization of the overlap matrix:
Smallest eigenvalue                        ... 2.944e-04
Time for diagonalization                   ...    0.007 sec
Threshold for overlap eigenvalues          ... 1.000e-08
Number of eigenvalues below threshold      ... 0
Time for construction of square roots      ...    0.014 sec
Total time needed                          ...    0.022 sec

-------------------
DFT GRID GENERATION
-------------------

General Integration Accuracy     IntAcc      ... 4.388
Radial Grid Type                 RadialGrid  ... OptM3 with GC (2021)
Angular Grid (max. ang.)         AngularGrid ... 4 (Lebedev-302)
Angular grid pruning method      GridPruning ... 4 (adaptive)
Weight generation scheme         WeightScheme... Becke
Basis function cutoff            BFCut       ... 1.0000e-11
Integration weight cutoff        WCut        ... 1.0000e-14
Angular grids for H and He will be reduced by one unit
Partially contracted basis set               ... off
Rotationally invariant grid construction     ... off

Total number of grid points                  ...    25762
Total number of batches                      ...      404
Average number of points per batch           ...       63
Average number of grid points per atom       ...     6440
Time for grid setup =    0.157 sec

--------------------
COSX GRID GENERATION
--------------------

GRIDX 1
-------
General Integration Accuracy     IntAcc      ... 3.816
Radial Grid Type                 RadialGrid  ... OptM3 with GC (2021)
Angular Grid (max. ang.)         AngularGrid ... 1 (Lebedev-50)
Angular grid pruning method      GridPruning ... 4 (adaptive)
Weight generation scheme         WeightScheme... Becke
Basis function cutoff            BFCut       ... 1.0000e-11
Integration weight cutoff        WCut        ... 1.0000e-14
Angular grids for H and He will be reduced by one unit
Partially contracted basis set               ... on
Rotationally invariant grid construction     ... off

Total number of grid points                  ...     3269
Total number of batches                      ...       52
Average number of points per batch           ...       62
Average number of grid points per atom       ...      817
UseSFitting                                  ... on

GRIDX 2
-------
General Integration Accuracy     IntAcc      ... 4.020
Radial Grid Type                 RadialGrid  ... OptM3 with GC (2021)
Angular Grid (max. ang.)         AngularGrid ... 2 (Lebedev-110)
Angular grid pruning method      GridPruning ... 4 (adaptive)
Weight generation scheme         WeightScheme... Becke
Basis function cutoff            BFCut       ... 1.0000e-11
Integration weight cutoff        WCut        ... 1.0000e-14
Angular grids for H and He will be reduced by one unit
Partially contracted basis set               ... on
Rotationally invariant grid construction     ... off

Total number of grid points                  ...     9151
Total number of batches                      ...      144
Average number of points per batch           ...       63
Average number of grid points per atom       ...     2288
UseSFitting                                  ... on

GRIDX 3
-------
General Integration Accuracy     IntAcc      ... 4.338
Radial Grid Type                 RadialGrid  ... OptM3 with GC (2021)
Angular Grid (max. ang.)         AngularGrid ... 3 (Lebedev-194)
Angular grid pruning method      GridPruning ... 4 (adaptive)
Weight generation scheme         WeightScheme... Becke
Basis function cutoff            BFCut       ... 1.0000e-11
Integration weight cutoff        WCut        ... 1.0000e-14
Angular grids for H and He will be reduced by one unit
Partially contracted basis set               ... on
Rotationally invariant grid construction     ... off

Total number of grid points                  ...    19677
Total number of batches                      ...      309
Average number of points per batch           ...       63
Average number of grid points per atom       ...     4919
[...]
  ZA   - Total nuclear charge
  QA   - Mulliken gross atomic charge
  VA   - Mayer's total valence
  BVA  - Mayer's bonded valence
  FA   - Mayer's free valence

  ATOM       NA         ZA         QA         VA         BVA        FA
  0 C      5.4754     6.0000     0.5246     3.8233     3.1525     0.6709
  1 F      9.1747     9.0000    -0.1747     1.0814     1.0776     0.0038
  2 F      9.1749     9.0000    -0.1749     1.0809     1.0771     0.0038
  3 F      9.1749     9.0000    -0.1749     1.0809     1.0771     0.0038

  Mayer bond orders larger than 0.100000
B(  0-C ,  1-F ) :   1.0512 B(  0-C ,  2-F ) :   1.0507 B(  0-C ,  3-F ) :   1.0507 


-------
TIMINGS
-------

Total SCF time: 0 days 0 hours 0 min 3 sec 

Total time                  ....       3.300 sec
Sum of individual times     ....       2.632 sec  ( 79.7%)

Fock matrix formation       ....       1.825 sec  ( 55.3%)
  Split-RI-J                ....       0.326 sec  ( 17.9% of F)
  Chain of spheres X        ....       0.860 sec  ( 47.1% of F)
  XC integration            ....       0.241 sec  ( 13.2% of F)
    Basis function eval.    ....       0.017 sec  (  6.9% of XC)
    Density eval.           ....       0.022 sec  (  9.2% of XC)
    XC-Functional eval.     ....       0.009 sec  (  3.8% of XC)
    XC-Potential eval.      ....       0.038 sec  ( 15.8% of XC)
Diagonalization             ....       0.056 sec  (  1.7%)
Density matrix formation    ....       0.006 sec  (  0.2%)
Population analysis         ....       0.182 sec  (  5.5%)
Initial guess               ....       0.022 sec  (  0.7%)
Orbital Transformation      ....       0.000 sec  (  0.0%)
Orbital Orthonormalization  ....       0.011 sec  (  0.3%)
DIIS solution               ....       0.017 sec  (  0.5%)
Grid generation             ....       0.524 sec  ( 15.9%)

Maximum memory used throughout the entire SCF-calculation: 63.3 MB


-------------------------------------------------------------------------------
                          DFT DISPERSION CORRECTION                            
                                                                               
                              DFTD3 V3.1  Rev 1                                
                              USING zero damping                               
-------------------------------------------------------------------------------
The omegaB97X-D3 functional is recognized. Fit by Chai et al.
Active option DFTDOPT                   ...         3   

molecular C6(AA) [au] = 165.781018 


            DFT-D V3
 parameters
 s6 scaling factor         :     1.0000 
 rs6 scaling factor        :     1.2810 
 s8 scaling factor         :     1.0000 
 rs8 scaling factor        :     1.0940 
 Damping factor alpha6     :    14.0000 
 Damping factor alpha8     :    16.0000 
 ad hoc parameters k1-k3   :    16.0000     1.3333    -4.0000 

 Edisp/kcal,au: -0.056242279809  -0.000089627768 
 E6   /kcal   :  -0.007213381 
 E8   /kcal   :  -0.049028899 
 % E8         :  87.174451117 

-------------------------   ----------------
Dispersion correction           -0.000089628
-------------------------   ----------------


-------------------------   --------------------
FINAL SINGLE POINT ENERGY      -337.631182576965
-------------------------   --------------------

                                *** OPTIMIZATION RUN DONE ***

                            ***************************************
                            *     ORCA property calculations      *
                            ***************************************

                                    ---------------------
                                    Active property flags
                                    ---------------------
   (+) Dipole Moment


------------------------------------------------------------------------------
                       ORCA ELECTRIC PROPERTIES CALCULATION
------------------------------------------------------------------------------

Dipole Moment Calculation                       ... on
Quadrupole Moment Calculation                   ... off
Polarizability Calculation                      ... off
GBWName                                         ... /beegfs/scratch/ispackman/PFAS_EPR_calcs/benchmark/JChemEd_CF3_radical/CF3_radical_113.5_degrees_IN-PROGRESS/CF3_radical_113.5_degrees.gbw
Electron density                                ... /beegfs/scratch/ispackman/PFAS_EPR_calcs/benchmark/JChemEd_CF3_radical/CF3_radical_113.5_degrees_IN-PROGRESS/CF3_radical_113.5_degrees.scfp
The origin for moment calculation is the CENTER OF MASS  = (-0.000035,  0.000000 -0.533134)

-------------
DIPOLE MOMENT
-------------
                                X             Y             Z
Electronic contribution:      0.00123      -0.00000      -0.12439
Nuclear contribution   :      0.00012      -0.00000       0.16492
                        -----------------------------------------
Total Dipole Moment    :      0.00135      -0.00000       0.04052
                        -----------------------------------------
Magnitude (a.u.)       :      0.04055
Magnitude (Debye)      :      0.10306



--------------------
Rotational spectrum 
--------------------
 
Rotational constants in cm-1:     0.359600     0.359353     0.184267 
Rotational constants in MHz : 10780.528842 10773.118061  5524.195045 

 Dipole components along the rotational axes: 
x,y,z [a.u.] :    -0.000001    -0.001353     0.040525 
x,y,z [Debye]:    -0.000001    -0.003438     0.103006 

 


           ************************************************************
           *        Program running with 18 parallel MPI-processes    *
           *              working on a common directory               *
           ************************************************************

-------------------------------------------------------------------------------
                               ORCA SCF HESSIAN
-------------------------------------------------------------------------------

                   --------- SHARK INITIALIZATION DONE ---------

Hessian of the Kohn-Sham DFT energy:
Kohn-Sham wavefunction type                      ... UKS
Hartree-Fock exchange scaling                    ...    0.196
Number of operators                              ...    2
Number of atoms                                  ...    4
Basis set dimensions                             ...  157
Integral neglect threshold                       ... 2.5e-11
Integral primitive cutoff                        ... 2.5e-12

Setting up DFT Hessian calculations              ... 

HESS GRID
---------

General Integration Accuracy     IntAcc      ... 4.629
Radial Grid Type                 RadialGrid  ... OptM3 with GC (2021)
Angular Grid (max. ang.)         AngularGrid ... 5 (Lebedev-434)
Angular grid pruning method      GridPruning ... 4 (adaptive)
Weight generation scheme         WeightScheme... Becke
Basis function cutoff            BFCut       ... 1.0000e-11
Integration weight cutoff        WCut        ... 1.0000e-14
Angular grids for H and He will be reduced by one unit
Partially contracted basis set               ... off
Rotationally invariant grid construction     ... off

Total number of grid points                  ...    39954
Total number of batches                      ...      626
Average number of points per batch           ...       63
Average number of grid points per atom       ...     9988

Building densities                               ... done   (      0.0 sec)
Calculating rho(r) on the grid                   ... done   (      0.1 sec)
Building xc-kernel on the grid                   ... done   (      0.1 sec)
                                                     done   (      0.7 sec)

Nuclear repulsion Hessian  (SHARK)               ... done   (      0.0 sec)

----------------------------------------------
Forming right-hand sides of CP-SCF equations     ...
----------------------------------------------
One electron integral derivatives  (SHARK)       ... done   (      0.0 sec)
Transforming the overlap derivative matrices     ... done   (      0.1 sec)
Making the Q(x) pseudodensities                  ... done   (      0.0 sec)
Adding the E*S(x)*S(y) terms to the Hessian      ... done   (      0.0 sec)
Calculating energy weighted overlap derivatives  ... done   (      0.1 sec)
Two electron integral derivatives (SHARK-RI)     ... done   (      2.4 sec)
Exchange-correlation integral derivatives        ... done   (      2.3 sec)
tr(F(y)Q(x)) contribution to the Hessian         ... done   (      0.0 sec)
Response fock operator R(S(x)) (SHARK-RIJCOSX)   ... done   (      0.9 sec)
XC Response fock operator R(S(x))                ... done   (      0.4 sec)
tr(F(y)S(x)) contribution to the Hessian         ... done   (      0.0 sec)
Transforming and finalizing RHSs                 ... done   (      0.0 sec)

----------------------------------------------
Solving the CP-SCF equations (RIJCOSX)           ...
----------------------------------------------
     CP-SCF ITERATION   0:   1.6312e-01 (   0.5 sec   0/ 12 done)
     CP-SCF ITERATION   1:   3.9550e-02 (   0.5 sec   0/ 12 done)
     CP-SCF ITERATION   2:   1.2718e-02 (   0.5 sec   0/ 12 done)
     CP-SCF ITERATION   3:   3.5723e-03 (   0.5 sec   0/ 12 done)
     CP-SCF ITERATION   4:   9.4098e-04 (   0.4 sec   0/ 12 done)
     CP-SCF ITERATION   5:   3.5832e-04 (   0.5 sec   1/ 12 done)
     CP-SCF ITERATION   6:   9.6090e-05 (   0.5 sec  12/ 12 done)
                    *** THE CP-SCF HAS CONVERGED ***

                                                 ... done   (      3.5 sec)
Forming perturbed density Hessian contributions  ... done   (      0.0 sec)
2nd integral derivative contribs (SHARK-RI)      ... done   (      6.4 sec)
Exchange-correlation Hessian                     ... done   (      0.9 sec)
Dispersion correction in the Hessian             ... done   (      0.1 sec)
Dipole derivatives                               ... (center of mass: -0.000035,  0.000000 -0.533134)done   (      0.2 sec)

Total SCF Hessian time: 0 days 0 hours 0 min 18 sec 

Writing the Hessian file to the disk             ... done


Maximum memory used throughout the entire SCFHESS-calculation: 146.3 MB

-----------------------
VIBRATIONAL FREQUENCIES
-----------------------

Scaling factor for frequencies =  1.000000000  (already applied!)

   0:         0.00 cm**-1
   1:         0.00 cm**-1
   2:         0.00 cm**-1
   3:         0.00 cm**-1
   4:         0.00 cm**-1
   5:         0.00 cm**-1
   6:       498.41 cm**-1
   7:       498.67 cm**-1
   8:       686.74 cm**-1
   9:      1071.45 cm**-1
  10:      1300.47 cm**-1
  11:      1302.52 cm**-1


------------
NORMAL MODES
------------

These modes are the Cartesian displacements weighted by the diagonal matrix
M(i,i)=1/sqrt(m[i]) where m[i] is the mass of the displaced atom
Thus, these vectors are normalized but *not* orthogonal

                  0          1          2          3          4          5    
      0       0.000000   0.000000   0.000000   0.000000   0.000000   0.000000
      1       0.000000   0.000000   0.000000   0.000000   0.000000   0.000000
      2       0.000000   0.000000   0.000000   0.000000   0.000000   0.000000
      3       0.000000   0.000000   0.000000   0.000000   0.000000   0.000000
      4       0.000000   0.000000   0.000000   0.000000   0.000000   0.000000
      5       0.000000   0.000000   0.000000   0.000000   0.000000   0.000000
      6       0.000000   0.000000   0.000000   0.000000   0.000000   0.000000
      7       0.000000   0.000000   0.000000   0.000000   0.000000   0.000000
      8       0.000000   0.000000   0.000000   0.000000   0.000000   0.000000
      9       0.000000   0.000000   0.000000   0.000000   0.000000   0.000000
     10       0.000000   0.000000   0.000000   0.000000   0.000000   0.000000
     11       0.000000   0.000000   0.000000   0.000000   0.000000   0.000000
                  6          7          8          9         10         11    
      0      -0.332188  -0.000061  -0.000947  -0.005012   0.000144  -0.901515
      1      -0.000061   0.331978   0.000000   0.000001  -0.901574  -0.000144
      2      -0.001445  -0.000000   0.669728  -0.774339  -0.000001   0.003652
      3      -0.468402  -0.000085  -0.405683  -0.325046  -0.000054   0.336952
      4       0.000111  -0.609509  -0.000000  -0.000000   0.044876   0.000007
      5      -0.037386  -0.000007  -0.141312   0.162672   0.000017  -0.103015
      6       0.339295  -0.467012   0.203141   0.164107  -0.125718   0.116484
      7       0.467933   0.199898  -0.349708  -0.283697   0.262580  -0.124239
      8       0.019144   0.032588  -0.141053   0.163442  -0.088536   0.050339
      9       0.339124   0.467136   0.203141   0.164107   0.125681   0.116524
     10      -0.468006   0.199727   0.349708   0.283697   0.262541   0.124323
     11       0.019156  -0.032581  -0.141053   0.163442   0.088520   0.050367


-----------
IR SPECTRUM
-----------

 Mode   freq       eps      Int      T**2         TX        TY        TZ
       cm**-1   L/(mol*cm) km/mol    a.u.
----------------------------------------------------------------------------
  6:    498.41   0.000316    1.60  0.000198  (-0.014065 -0.000003 -0.000075)
  7:    498.67   0.000313    1.58  0.000196  (-0.000003  0.013989 -0.000000)
  8:    686.74   0.002401   12.13  0.001091  (-0.000077  0.000000  0.033032)
  9:   1071.45   0.006212   31.39  0.001809  (-0.000782  0.000000 -0.042527)
 10:   1300.47   0.073256  370.20  0.017579  ( 0.000021 -0.132585 -0.000000)
 11:   1302.52   0.073265  370.25  0.017553  (-0.132488 -0.000021  0.000150)

* The epsilon (eps) is given for a Dirac delta lineshape.
** The dipole moment derivative (T) already includes vibrational overlap.

The first frequency considered to be a vibration is 6
The total number of vibrations considered is 6


--------------------------
THERMOCHEMISTRY AT 298.15K
--------------------------

Temperature         ... 298.15 K
Pressure            ... 1.00 atm
Total Mass          ... 69.00 AMU

Throughout the following assumptions are being made:
  (1) The electronic state is orbitally nondegenerate
      but the spin degeneracy is treated
  (2) There are no thermally accessible electronically excited states
  (3) Hindered rotations indicated by low frequency modes are not
      treated as such but are treated as vibrations and this may
      cause some error
  (4) All equations used are the standard statistical mechanics
      equations for an ideal gas
  (5) All vibrations are strictly harmonic

freq.     498.41  E(vib)   ...       0.14 
freq.     498.67  E(vib)   ...       0.14 
freq.     686.74  E(vib)   ...       0.07 
freq.    1071.45  E(vib)   ...       0.02 
freq.    1300.47  E(vib)   ...       0.01 
freq.    1302.52  E(vib)   ...       0.01 

------------
INNER ENERGY
------------

The inner energy is: U= E(el) + E(ZPE) + E(vib) + E(rot) + E(trans)
    E(el)   - is the total energy from the electronic structure calculation
              = E(kin-el) + E(nuc-el) + E(el-el) + E(nuc-nuc)
    E(ZPE)  - the the zero temperature vibrational energy from the frequency calculation
    E(vib)  - the the finite temperature correction to E(ZPE) due to population
              of excited vibrational states
    E(rot)  - is the rotational thermal energy
    E(trans)- is the translational thermal energy

Summary of contributions to the inner energy U:
Electronic energy                ...   -337.63118258 Eh
Zero point energy                ...      0.01220702 Eh       7.66 kcal/mol
Thermal vibrational correction   ...      0.00061867 Eh       0.39 kcal/mol
Thermal rotational correction    ...      0.00141627 Eh       0.89 kcal/mol
Thermal translational correction ...      0.00141627 Eh       0.89 kcal/mol
-----------------------------------------------------------------------
Total thermal energy                   -337.61552435 Eh


Summary of corrections to the electronic energy:
(perhaps to be used in another calculation)
Total thermal correction                  0.00345121 Eh       2.17 kcal/mol
Non-thermal (ZPE) correction              0.01220702 Eh       7.66 kcal/mol
-----------------------------------------------------------------------
Total correction                          0.01565823 Eh       9.83 kcal/mol


--------
ENTHALPY
--------

The enthalpy is H = U + kB*T
                kB is Boltzmann's constant
Total free energy                 ...   -337.61552435 Eh 
Thermal Enthalpy correction       ...      0.00094421 Eh       0.59 kcal/mol
-----------------------------------------------------------------------
Total Enthalpy                    ...   -337.61458014 Eh


Note: Rotational entropy computed according to Herzberg 
Infrared and Raman Spectra, Chapter V,1, Van Nostrand Reinhold, 1945 
Point Group:  Cs, Symmetry Number:   1  
Rotational constants in cm-1:     0.359600     0.359353     0.184267 

Vibrational entropy computed according to the QRRHO of S. Grimme
Chem.Eur.J. 2012 18 9955


-------
ENTROPY
-------

The entropy contributions are T*S = T*(S(el)+S(vib)+S(rot)+S(trans))
     S(el)   - electronic entropy
     S(vib)  - vibrational entropy
     S(rot)  - rotational entropy
     S(trans)- translational entropy
The entropies will be listed as multiplied by the temperature to get
units of energy

Electronic entropy                ...      0.00065446 Eh      0.41 kcal/mol
Vibrational entropy               ...      0.00084214 Eh      0.53 kcal/mol
Rotational entropy                ...      0.01127529 Eh      7.08 kcal/mol
Translational entropy             ...      0.01834582 Eh     11.51 kcal/mol
-----------------------------------------------------------------------
Final entropy term                ...      0.03111770 Eh     19.53 kcal/mol

In case the symmetry of your molecule has not been determined correctly
or in case you have a reason to use a different symmetry number we print 
out the resulting rotational entropy values for sn=1,12 :
 --------------------------------------------------------
|  sn= 1 | S(rot)=       0.01127529 Eh      7.08 kcal/mol|
|  sn= 2 | S(rot)=       0.01062083 Eh      6.66 kcal/mol|
|  sn= 3 | S(rot)=       0.01023800 Eh      6.42 kcal/mol|
|  sn= 4 | S(rot)=       0.00996637 Eh      6.25 kcal/mol|
|  sn= 5 | S(rot)=       0.00975569 Eh      6.12 kcal/mol|
|  sn= 6 | S(rot)=       0.00958354 Eh      6.01 kcal/mol|
|  sn= 7 | S(rot)=       0.00943800 Eh      5.92 kcal/mol|
|  sn= 8 | S(rot)=       0.00931192 Eh      5.84 kcal/mol|
|  sn= 9 | S(rot)=       0.00920071 Eh      5.77 kcal/mol|
|  sn=10 | S(rot)=       0.00910123 Eh      5.71 kcal/mol|
|  sn=11 | S(rot)=       0.00901124 Eh      5.65 kcal/mol|
|  sn=12 | S(rot)=       0.00892909 Eh      5.60 kcal/mol|
 --------------------------------------------------------


-------------------
GIBBS FREE ENERGY
-------------------

The Gibbs free energy is G = H - T*S

Total enthalpy                    ...   -337.61458014 Eh 
Total entropy correction          ...     -0.03111770 Eh    -19.53 kcal/mol
-----------------------------------------------------------------------
Final Gibbs free energy         ...   -337.64569783 Eh

For completeness - the Gibbs free energy minus the electronic energy
G-E(el)                           ...     -0.01451526 Eh     -9.11 kcal/mol


Timings for individual modules:

Sum of individual times         ...       85.283 sec (=   1.421 min)
GTO integral calculation        ...       10.738 sec (=   0.179 min)  12.6 %
SCF iterations                  ...       41.824 sec (=   0.697 min)  49.0 %
SCF Gradient evaluation         ...       10.781 sec (=   0.180 min)  12.6 %
Geometry relaxation             ...        0.169 sec (=   0.003 min)   0.2 %
Analytical frequency calculation...       21.771 sec (=   0.363 min)  25.5 %
                             ****ORCA TERMINATED NORMALLY****
TOTAL RUN TIME: 0 days 0 hours 1 minutes 36 seconds 684 msec

slurmID:    32260067
totalRuntime[s]:    96.723648043
