
                                 *****************
                                 * O   R   C   A *
                                 *****************

                                            #,                                       
                                            ###                                      
                                            ####                                     
                                            #####                                    
                                            ######                                   
                                           ########,                                 
                                     ,,################,,,,,                         
                               ,,#################################,,                 
                          ,,##########################################,,             
                       ,#########################################, ''#####,          
                    ,#############################################,,   '####,        
                  ,##################################################,,,,####,       
                ,###########''''           ''''###############################       
              ,#####''   ,,,,##########,,,,          '''####'''          '####       
            ,##' ,,,,###########################,,,                        '##       
           ' ,,###''''                  '''############,,,                           
         ,,##''                                '''############,,,,        ,,,,,,###''
      ,#''                                            '''#######################'''  
     '                                                          ''''####''''         
             ,#######,   #######,   ,#######,      ##                                
            ,#'     '#,  ##    ##  ,#'     '#,    #''#        ######   ,####,        
            ##       ##  ##   ,#'  ##            #'  '#       #        #'  '#        
            ##       ##  #######   ##           ,######,      #####,   #    #        
            '#,     ,#'  ##    ##  '#,     ,#' ,#      #,         ##   #,  ,#        
             '#######'   ##     ##  '#######'  #'      '#     #####' # '####'        



                  #######################################################
                  #                        -***-                        #
                  #          Department of theory and spectroscopy      #
                  #    Directorship and core code : Frank Neese         #
                  #        Max Planck Institute fuer Kohlenforschung    #
                  #                Kaiser Wilhelm Platz 1               #
                  #                 D-45470 Muelheim/Ruhr               #
                  #                      Germany                        #
                  #                                                     #
                  #                  All rights reserved                #
                  #                        -***-                        #
                  #######################################################


                         Program Version 5.0.4 -  RELEASE  -


 With contributions from (in alphabetic order):
   Daniel Aravena         : Magnetic Suceptibility
   Michael Atanasov       : Ab Initio Ligand Field Theory (pilot matlab implementation)
   Alexander A. Auer      : GIAO ZORA, VPT2 properties, NMR spectrum
   Ute Becker             : Parallelization
   Giovanni Bistoni       : ED, misc. LED, open-shell LED, HFLD
   Martin Brehm           : Molecular dynamics
   Dmytro Bykov           : SCF Hessian
   Vijay G. Chilkuri      : MRCI spin determinant printing, contributions to CSF-ICE
   Dipayan Datta          : RHF DLPNO-CCSD density
   Achintya Kumar Dutta   : EOM-CC, STEOM-CC
   Dmitry Ganyushin       : Spin-Orbit,Spin-Spin,Magnetic field MRCI
   Miquel Garcia          : C-PCM and meta-GGA Hessian, CC/C-PCM, Gaussian charge scheme
   Yang Guo               : DLPNO-NEVPT2, F12-NEVPT2, CIM, IAO-localization
   Andreas Hansen         : Spin unrestricted coupled pair/coupled cluster methods
   Benjamin Helmich-Paris : MC-RPA, TRAH-SCF, COSX integrals
   Lee Huntington         : MR-EOM, pCC
   Robert Izsak           : Overlap fitted RIJCOSX, COSX-SCS-MP3, EOM
   Marcus Kettner         : VPT2
   Christian Kollmar      : KDIIS, OOCD, Brueckner-CCSD(T), CCSD density, CASPT2, CASPT2-K
   Simone Kossmann        : Meta GGA functionals, TD-DFT gradient, OOMP2, MP2 Hessian
   Martin Krupicka        : Initial AUTO-CI
   Lucas Lang             : DCDCAS
   Marvin Lechner         : AUTO-CI (C++ implementation), FIC-MRCC
   Dagmar Lenk            : GEPOL surface, SMD
   Dimitrios Liakos       : Extrapolation schemes; Compound Job, initial MDCI parallelization
   Dimitrios Manganas     : Further ROCIS development; embedding schemes
   Dimitrios Pantazis     : SARC Basis sets
   Anastasios Papadopoulos: AUTO-CI, single reference methods and gradients
   Taras Petrenko         : DFT Hessian,TD-DFT gradient, ASA, ECA, R-Raman, ABS, FL, XAS/XES, NRVS
   Peter Pinski           : DLPNO-MP2, DLPNO-MP2 Gradient
   Christoph Reimann      : Effective Core Potentials
   Marius Retegan         : Local ZFS, SOC
   Christoph Riplinger    : Optimizer, TS searches, QM/MM, DLPNO-CCSD(T), (RO)-DLPNO pert. Triples
   Tobias Risthaus        : Range-separated hybrids, TD-DFT gradient, RPA, STAB
   Michael Roemelt        : Original ROCIS implementation
   Masaaki Saitow         : Open-shell DLPNO-CCSD energy and density
   Barbara Sandhoefer     : DKH picture change effects
   Avijit Sen             : IP-ROCIS
   Kantharuban Sivalingam : CASSCF convergence, NEVPT2, FIC-MRCI
   Bernardo de Souza      : ESD, SOC TD-DFT
   Georgi Stoychev        : AutoAux, RI-MP2 NMR, DLPNO-MP2 response
   Willem Van den Heuvel  : Paramagnetic NMR
   Boris Wezisla          : Elementary symmetry handling
   Frank Wennmohs         : Technical directorship


 We gratefully acknowledge several colleagues who have allowed us to
 interface, adapt or use parts of their codes:
   Stefan Grimme, W. Hujo, H. Kruse, P. Pracht,  : VdW corrections, initial TS optimization,
                  C. Bannwarth, S. Ehlert          DFT functionals, gCP, sTDA/sTD-DF
   Ed Valeev, F. Pavosevic, A. Kumar             : LibInt (2-el integral package), F12 methods
   Garnet Chan, S. Sharma, J. Yang, R. Olivares  : DMRG
   Ulf Ekstrom                                   : XCFun DFT Library
   Mihaly Kallay                                 : mrcc  (arbitrary order and MRCC methods)
   Jiri Pittner, Ondrej Demel                    : Mk-CCSD
   Frank Weinhold                                : gennbo (NPA and NBO analysis)
   Christopher J. Cramer and Donald G. Truhlar   : smd solvation model
   Lars Goerigk                                  : TD-DFT with DH, B97 family of functionals
   V. Asgeirsson, H. Jonsson                     : NEB implementation
   FAccTs GmbH                                   : IRC, NEB, NEB-TS, DLPNO-Multilevel, CI-OPT
                                                   MM, QMMM, 2- and 3-layer-ONIOM, Crystal-QMMM,
                                                   LR-CPCM, SF, NACMEs, symmetry and pop. for TD-DFT,
                                                   nearIR, NL-DFT gradient (VV10), updates on ESD,
                                                   ML-optimized integration grids
   S Lehtola, MJT Oliveira, MAL Marques          : LibXC Library
   Liviu Ungur et al                             : ANISO software


 Your calculation uses the libint2 library for the computation of 2-el integrals
 For citations please refer to: http://libint.valeyev.net

 Your ORCA version has been built with support for libXC version: 5.1.0
 For citations please refer to: https://tddft.org/programs/libxc/

 This ORCA versions uses:
   CBLAS   interface :  Fast vector & matrix operations
   LAPACKE interface :  Fast linear algebra routines
   SCALAPACK package :  Parallel linear algebra routines
   Shared memory     :  Shared parallel matrices
   BLAS/LAPACK       :  OpenBLAS 0.3.15  USE64BITINT DYNAMIC_ARCH NO_AFFINITY SkylakeX SINGLE_THREADED
        Core in use  :  SkylakeX
   Copyright (c) 2011-2014, The OpenBLAS Project


Your calculation utilizes the atom-pairwise dispersion correction
with the zero-damping scheme (D30)
Cite in your paper:
S.Grimme, J.Antony, S.Ehrlich and H.Krieg, J.Chem.Phys., 132, (2010), 154104 
   

XCFun DFT library Copyright 2009-2010 Ulf Ekstrom and contributors.
See http://admol.org/xcfun for more information.
This is free software; see the source code for copying conditions.
There is ABSOLUTELY NO WARRANTY; not even for MERCHANTABILITY or FITNESS FOR A PARTICULAR PURPOSE.
For details see the documentation.
Scientific users of this library should cite U. Ekstrom, L. Visscher, R. Bast, A. J. Thorvaldsen and K. Ruud;
J.Chem.Theor.Comp. 2010, DOI: 10.1021/ct100117s
XCFun Version 0.99 

================================================================================

----- Orbital basis set information -----
Your calculation utilizes the basis: def2-TZVPD
   F. Weigend and R. Ahlrichs, Phys. Chem. Chem. Phys. 7, 3297 (2005).
   D. Rappoport and F. Furche, J. Chem. Phys. 133 134105 (2010).

----- AuxJ basis set information -----
Your calculation utilizes the auxiliary basis: def2/J
   F. Weigend, Phys. Chem. Chem. Phys. 8, 1057 (2006).

================================================================================
                                        WARNINGS
                       Please study these warnings very carefully!
================================================================================


WARNING: Geometry Optimization
  ===> : Switching off AutoStart
         For restart on a previous wavefunction, please use MOREAD

INFO   : the flag for use of the SHARK integral package has been found!

================================================================================
                                       INPUT FILE
================================================================================
NAME = /beegfs/scratch/ispackman/PFAS_EPR_calcs/benchmark/JChemEd_CF3_radical/CF3_radical_95.0_degrees_IN-PROGRESS/CF3_radical_95.0_degrees.inp
|  1> ! UKS TightSCF wB97x-D3 def2-TZVPD xyzfile opt freq
|  2> 
|  3> # CF3 radical 95.0 degrees fixed
|  4> 
|  5> %maxcore 1000
|  6> %pal
|  7> nprocs 18
|  8> end
|  9> 
| 10> %geom Constraints
| 11>         { A * 0 * C }
| 12>     end
| 13> end
| 14> * xyz 0 2
| 15> C 0.00 0.00 0.00
| 16> F 1.1195049171 0.0000000000 -0.6898795116
| 17> F -0.5597524586 0.9695196979 -0.6898795116
| 18> F -0.5597524586 -0.9695196979 -0.6898795116
| 19> **                         ****END OF INPUT****
================================================================================

                       *****************************
                       * Geometry Optimization Run *
                       *****************************

Geometry optimization settings:
Update method            Update   .... BFGS
Choice of coordinates    CoordSys .... Z-matrix Internals
Initial Hessian          InHess   .... Almoef's Model

Convergence Tolerances:
Energy Change            TolE     ....  5.0000e-06 Eh
Max. Gradient            TolMAXG  ....  3.0000e-04 Eh/bohr
RMS Gradient             TolRMSG  ....  1.0000e-04 Eh/bohr
Max. Displacement        TolMAXD  ....  4.0000e-03 bohr
RMS Displacement         TolRMSD  ....  2.0000e-03 bohr
Strict Convergence                ....  False
------------------------------------------------------------------------------
                        ORCA OPTIMIZATION COORDINATE SETUP
------------------------------------------------------------------------------

The optimization will be done in new redundant internal coordinates
Making redundant internal coordinates   ...  (new redundants) done
Evaluating the initial hessian          ...  (Almloef) done
Evaluating the coordinates              ...  done
Calculating the B-matrix                .... done
Calculating the G-matrix                .... done
Diagonalizing the G-matrix              .... done
Imposing constraints:
 Iter   0:  RMS(Cart)=    0.0000000000 RMS(Int)=    0.0000000000
CONVERGED
Will constrain atom 0 coordinate 1 
Will constrain atom 0 coordinate 2 
Will constrain atom 1 coordinate 2 
The first mode is                       ....    1
The number of degrees of freedom        ....    6
Storing new coordinates                 .... done

    -----------------------------------------------------------------
                    Redundant Internal Coordinates


    -----------------------------------------------------------------
         Definition                    Initial Value    Approx d2E/dq
    -----------------------------------------------------------------
      1. B(F   1,C   0)                  1.3150         0.684896   
      2. B(F   2,C   0)                  1.3150         0.684896   
      3. B(F   3,C   0)                  1.3150         0.684896   
      4. A(F   2,C   0,F   3)           95.0000         0.440101 C 
      5. A(F   1,C   0,F   2)           95.0000         0.440101 C 
      6. A(F   1,C   0,F   3)           95.0000         0.440101 C 
      7. I(F   1,F   3,F   2,C   0)     82.5878         0.002524   
    -----------------------------------------------------------------

Number of atoms                         .... 4
Number of degrees of freedom            .... 7

         *************************************************************
         *                GEOMETRY OPTIMIZATION CYCLE   1            *
         *************************************************************
---------------------------------
CARTESIAN COORDINATES (ANGSTROEM)
---------------------------------
  C      0.000000    0.000000    0.000000
  F      1.119505    0.000000   -0.689880
  F     -0.559752    0.969520   -0.689880
  F     -0.559752   -0.969520   -0.689880

----------------------------
CARTESIAN COORDINATES (A.U.)
----------------------------
  NO LB      ZA    FRAG     MASS         X           Y           Z
   0 C     6.0000    0    12.011    0.000000    0.000000    0.000000
   1 F     9.0000    0    18.998    2.115558    0.000000   -1.303683
   2 F     9.0000    0    18.998   -1.057779    1.832127   -1.303683
   3 F     9.0000    0    18.998   -1.057779   -1.832127   -1.303683

--------------------------------
INTERNAL COORDINATES (ANGSTROEM)
--------------------------------
 C      0   0   0     0.000000000000     0.00000000     0.00000000
 F      1   0   0     1.314999999976     0.00000000     0.00000000
 F      1   2   0     1.315000000019    95.00000000     0.00000000
 F      1   2   3     1.315000000019    95.00000000    95.47878173

---------------------------
INTERNAL COORDINATES (A.U.)
---------------------------
 C      0   0   0     0.000000000000     0.00000000     0.00000000
 F      1   0   0     2.484989866061     0.00000000     0.00000000
 F      1   2   0     2.484989866143    95.00000000     0.00000000
 F      1   2   3     2.484989866143    95.00000000    95.47878173

---------------------
BASIS SET INFORMATION
---------------------
There are 2 groups of distinct atoms

 Group   1 Type C   : 12s6p3d1f contracted to 6s3p3d1f pattern {621111/411/111/1}
 Group   2 Type F   : 12s7p3d1f contracted to 6s4p3d1f pattern {621111/4111/111/1}

Atom   0C    basis set group =>   1
Atom   1F    basis set group =>   2
Atom   2F    basis set group =>   2
Atom   3F    basis set group =>   2
---------------------------------
AUXILIARY/J BASIS SET INFORMATION
---------------------------------
There are 2 groups of distinct atoms

 Group   1 Type C   : 12s5p4d2f1g contracted to 6s4p3d1f1g pattern {711111/2111/211/2/1}
 Group   2 Type F   : 12s5p4d2f1g contracted to 6s4p3d1f1g pattern {711111/2111/211/2/1}

Atom   0C    basis set group =>   1
Atom   1F    basis set group =>   2
Atom   2F    basis set group =>   2
Atom   3F    basis set group =>   2


           ************************************************************
           *        Program running with 18 parallel MPI-processes    *
           *              working on a common directory               *
           ************************************************************
------------------------------------------------------------------------------
                           ORCA GTO INTEGRAL CALCULATION
                           -- RI-GTO INTEGRALS CHOSEN --
------------------------------------------------------------------------------
------------------------------------------------------------------------------
                   ___                                                        
                  /   \      - P O W E R E D   B Y -                         
                 /     \                                                     
                 |  |  |   _    _      __       _____    __    __             
                 |  |  |  | |  | |    /  \     |  _  \  |  |  /  |          
                  \  \/   | |  | |   /    \    | | | |  |  | /  /          
                 / \  \   | |__| |  /  /\  \   | |_| |  |  |/  /          
                |  |  |   |  __  | /  /__\  \  |    /   |      \           
                |  |  |   | |  | | |   __   |  |    \   |  |\   \          
                \     /   | |  | | |  |  |  |  | |\  \  |  | \   \       
                 \___/    |_|  |_| |__|  |__|  |_| \__\ |__|  \__/        
                                                                              
                      - O R C A' S   B I G   F R I E N D -                    
                                      &                                       
                       - I N T E G R A L  F E E D E R -                       
                                                                              
 v1 FN, 2020, v2 2021                                                         
------------------------------------------------------------------------------


Reading SHARK input file /beegfs/scratch/ispackman/PFAS_EPR_calcs/benchmark/JChemEd_CF3_radical/CF3_radical_95.0_degrees_IN-PROGRESS/CF3_radical_95.0_degrees.SHARKINP.tmp ... ok
----------------------
SHARK INTEGRAL PACKAGE
----------------------

Number of atoms                             ...      4
Number of basis functions                   ...    157
Number of shells                            ...     55
Maximum angular momentum                    ...      3
Integral batch strategy                     ... SHARK/LIBINT Hybrid
RI-J (if used) integral strategy            ... SPLIT-RIJ (Revised 2003 algorithm where possible)
Printlevel                                  ...      1
Contraction scheme used                     ... SEGMENTED contraction
Coulomb Range Separation                    ... NOT USED
Exchange Range Separation                   ... Long Range
   Mu parameter                             ...  0.250000
   Scaling (regular/separated)              ...  0.195728  0.804272
Finite Nucleus Model                        ... NOT USED
Auxiliary Coulomb fitting basis             ... AVAILABLE
   # of basis functions in Aux-J            ...    196
   # of shells in Aux-J                     ...     60
   Maximum angular momentum in Aux-J        ...      4
Auxiliary J/K fitting basis                 ... NOT available
Auxiliary Correlation fitting basis         ... NOT available
Auxiliary 'external' fitting basis          ... NOT available
Integral threshold                          ...     2.500000e-11
Primitive cut-off                           ...     2.500000e-12
Primitive pair pre-selection threshold      ...     2.500000e-12

Calculating pre-screening integrals         ... done (  0.0 sec) Dimension = 55
Organizing shell pair data                  ... done (  0.0 sec)
Shell pair information
Total number of shell pairs                 ...      1540
Shell pairs after pre-screening             ...      1516
Total number of primitive shell pairs       ...      4274
Primitive shell pairs kept                  ...      3587
          la=0 lb=0:    282 shell pairs
          la=1 lb=0:    360 shell pairs
          la=1 lb=1:    120 shell pairs
          la=2 lb=0:    282 shell pairs
          la=2 lb=1:    180 shell pairs
          la=2 lb=2:     78 shell pairs
          la=3 lb=0:     96 shell pairs
          la=3 lb=1:     60 shell pairs
          la=3 lb=2:     48 shell pairs
          la=3 lb=3:     10 shell pairs

Calculating one electron integrals          ... done (  0.0 sec)
Calculating RI/J V-Matrix + Cholesky decomp.... done (  0.0 sec)
Calculating Nuclear repulsion               ... done (  0.0 sec) ENN=    131.507786653034 Eh

SHARK setup successfully completed in   0.3 seconds

Maximum memory used throughout the entire GTOINT-calculation: 15.2 MB


           ************************************************************
           *        Program running with 18 parallel MPI-processes    *
           *              working on a common directory               *
           ************************************************************
-------------------------------------------------------------------------------
                                 ORCA SCF
-------------------------------------------------------------------------------

------------
SCF SETTINGS
------------
Hamiltonian:
 Density Functional     Method          .... DFT(GTOs)
 Exchange Functional    Exchange        .... WB97X-D3
 Correlation Functional Correlation     .... WB97X-D3
 Gradients option       PostSCFGGA      .... off
 Hybrid DFT is turned on
   Fraction HF Exchange ScalHFX         ....  0.195728
   Scaling of DF-GGA-X  ScalDFX         ....  0.000000
   Scaling of DF-GGA-C  ScalDFC         ....  1.000000
   Scaling of DF-LDA-C  ScalLDAC        ....  1.000000
   Perturbative correction              ....  0.000000
   Density functional embedding theory  .... OFF
 Long-range corrected/Screened/Range-Separated Hybrid DFT is turned on
   Amount of maximum screened exact exchange              ....  0.804272
   Range separation parameter mu (erf(mu*r12)/r12)        ....  0.250000
 RI-approximation to the Coulomb term is turned on
   Number of AuxJ basis functions       .... 196
   RIJ-COSX (HFX calculated with COS-X)).... on


General Settings:
 Integral files         IntName         .... /beegfs/scratch/ispackman/PFAS_EPR_calcs/benchmark/JChemEd_CF3_radical/CF3_radical_95.0_degrees_IN-PROGRESS/CF3_radical_95.0_degrees
 Hartree-Fock type      HFTyp           .... UHF
 Total Charge           Charge          ....    0
 Multiplicity           Mult            ....    2
 Number of Electrons    NEL             ....   33
 Basis Dimension        Dim             ....  157
 Nuclear Repulsion      ENuc            ....    131.5077866530 Eh

Convergence Acceleration:
 DIIS                   CNVDIIS         .... on
   Start iteration      DIISMaxIt       ....    12
   Startup error        DIISStart       ....  0.200000
   # of expansion vecs  DIISMaxEq       ....     5
   Bias factor          DIISBfac        ....   1.050
   Max. coefficient     DIISMaxC        ....  10.000
 Trust-Rad. Augm. Hess. CNVTRAH         .... auto
   Auto Start mean grad. ratio tolernc. ....  1.125000
   Auto Start start iteration           ....    20
   Auto Start num. interpolation iter.  ....    10
   Max. Number of Micro iterations      ....    16
   Max. Number of Macro iterations      .... Maxiter - #DIIS iter
   Number of Davidson start vectors     ....     2
   Converg. threshold I  (grad. norm)   ....   1.000e-05
   Converg. threshold II (energy diff.) ....   1.000e-08
   Grad. Scal. Fac. for Micro threshold ....   0.100
   Minimum threshold for Micro iter.    ....   0.010
   NR start threshold (gradient norm)   ....   0.001
   Initial trust radius                 ....   0.400
   Minimum AH scaling param. (alpha)    ....   1.000
   Maximum AH scaling param. (alpha)    .... 1000.000
   Orbital update algorithm             .... Taylor
   White noise on init. David. guess    .... on
   Maximum white noise                  ....   0.010
   Quad. conv. algorithm                .... NR
 SOSCF                  CNVSOSCF        .... off
 Level Shifting         CNVShift        .... on
   Level shift para.    LevelShift      ....    0.2500
   Turn off err/grad.   ShiftErr        ....    0.0010
 Zerner damping         CNVZerner       .... off
 Static damping         CNVDamp         .... on
   Fraction old density DampFac         ....    0.7000
   Max. Damping (<1)    DampMax         ....    0.9800
   Min. Damping (>=0)   DampMin         ....    0.0000
   Turn off err/grad.   DampErr         ....    0.1000
 Fernandez-Rico         CNVRico         .... off

SCF Procedure:
 Maximum # iterations   MaxIter         ....   125
 SCF integral mode      SCFMode         .... Direct
   Integral package                     .... SHARK and LIBINT hybrid scheme
 Reset frequency        DirectResetFreq ....    20
 Integral Threshold     Thresh          ....  2.500e-11 Eh
 Primitive CutOff       TCut            ....  2.500e-12 Eh

Convergence Tolerance:
 Convergence Check Mode ConvCheckMode   .... Total+1el-Energy
 Convergence forced     ConvForced      .... 0
 Energy Change          TolE            ....  1.000e-08 Eh
 1-El. energy change                    ....  1.000e-05 Eh
 DIIS Error             TolErr          ....  5.000e-07


Diagonalization of the overlap matrix:
Smallest eigenvalue                        ... 3.394e-04
Time for diagonalization                   ...    0.005 sec
Threshold for overlap eigenvalues          ... 1.000e-08
Number of eigenvalues below threshold      ... 0
Time for construction of square roots      ...    0.020 sec
Total time needed                          ...    0.026 sec

Time for model grid setup =    0.069 sec

------------------------------
INITIAL GUESS: MODEL POTENTIAL
------------------------------
Loading Hartree-Fock densities                     ... done
Calculating cut-offs                               ... done
Initializing the effective Hamiltonian             ... done
Setting up the integral package (SHARK)            ... done
Starting the Coulomb interaction                   ... done (   0.1 sec)
Reading the grid                                   ... done
Mapping shells                                     ... done
Starting the XC term evaluation                    ... done (   0.0 sec)
  promolecular density results
     # of electrons  =     33.000059269
     EX              =    -35.109970165
     EC              =     -1.151185070
     EX+EC           =    -36.261155235
Transforming the Hamiltonian                       ... done (   0.0 sec)
Diagonalizing the Hamiltonian                      ... done (   0.0 sec)
Back transforming the eigenvectors                 ... done (   0.0 sec)
Now organizing SCF variables                       ... done
                      ------------------
                      INITIAL GUESS DONE (   0.2 sec)
                      ------------------
-------------------
DFT GRID GENERATION
-------------------

General Integration Accuracy     IntAcc      ... 4.388
Radial Grid Type                 RadialGrid  ... OptM3 with GC (2021)
Angular Grid (max. ang.)         AngularGrid ... 4 (Lebedev-302)
Angular grid pruning method      GridPruning ... 4 (adaptive)
Weight generation scheme         WeightScheme... Becke
Basis function cutoff            BFCut       ... 1.0000e-11
Integration weight cutoff        WCut        ... 1.0000e-14
Angular grids for H and He will be reduced by one unit
Partially contracted basis set               ... off
Rotationally invariant grid construction     ... off

Total number of grid points                  ...    25778
Total number of batches                      ...      404
Average number of points per batch           ...       63
Average number of grid points per atom       ...     6444
Time for grid setup =    0.149 sec

--------------------
COSX GRID GENERATION
--------------------

GRIDX 1
-------
General Integration Accuracy     IntAcc      ... 3.816
Radial Grid Type                 RadialGrid  ... OptM3 with GC (2021)
Angular Grid (max. ang.)         AngularGrid ... 1 (Lebedev-50)
Angular grid pruning method      GridPruning ... 4 (adaptive)
Weight generation scheme         WeightScheme... Becke
Basis function cutoff            BFCut       ... 1.0000e-11
Integration weight cutoff        WCut        ... 1.0000e-14
Angular grids for H and He will be reduced by one unit
Partially contracted basis set               ... on
Rotationally invariant grid construction     ... off

Total number of grid points                  ...     3274
Total number of batches                      ...       53
Average number of points per batch           ...       61
Average number of grid points per atom       ...      818
UseSFitting                                  ... on

GRIDX 2
-------
General Integration Accuracy     IntAcc      ... 4.020
Radial Grid Type                 RadialGrid  ... OptM3 with GC (2021)
Angular Grid (max. ang.)         AngularGrid ... 2 (Lebedev-110)
Angular grid pruning method      GridPruning ... 4 (adaptive)
Weight generation scheme         WeightScheme... Becke
Basis function cutoff            BFCut       ... 1.0000e-11
Integration weight cutoff        WCut        ... 1.0000e-14
Angular grids for H and He will be reduced by one unit
Partially contracted basis set               ... on
Rotationally invariant grid construction     ... off

Total number of grid points                  ...     9141
Total number of batches                      ...      145
Average number of points per batch           ...       63
Average number of grid points per atom       ...     2285
UseSFitting                                  ... on

GRIDX 3
-------
General Integration Accuracy     IntAcc      ... 4.338
Radial Grid Type                 RadialGrid  ... OptM3 with GC (2021)
Angular Grid (max. ang.)         AngularGrid ... 3 (Lebedev-194)
Angular grid pruning method      GridPruning ... 4 (adaptive)
Weight generation scheme         WeightScheme... Becke
Basis function cutoff            BFCut       ... 1.0000e-11
Integration weight cutoff        WCut        ... 1.0000e-14
Angular grids for H and He will be reduced by one unit
Partially contracted basis set               ... on
Rotationally invariant grid construction     ... off

Total number of grid points                  ...    19692
Total number of batches                      ...      309
Average number of points per batch           ...       63
Average number of grid points per atom       ...     4923
UseSFitting                                  ... on

Time for X-Grid setup             =    0.403 sec

--------------
SCF ITERATIONS
--------------
ITER       Energy         Delta-E        Max-DP      RMS-DP      [F,P]     Damp
               ***  Starting incremental Fock matrix formation  ***
  0   -337.4828292741   0.000000000000 0.02178557  0.00044129  0.0755531 0.7000
  1   -337.5163137435  -0.033484469433 0.01162697  0.00028930  0.0355192 0.7000
                               ***Turning on DIIS***
  2   -337.5299544438  -0.013640700313 0.02788157  0.00053479  0.0172794 0.0000
  3   -337.5538768825  -0.023922438683 0.00697103  0.00016241  0.0153621 0.0000
  4   -337.5578443659  -0.003967483450 0.00474793  0.00007603  0.0033892 0.0000
  5   -337.5580505937  -0.000206227758 0.00281449  0.00004414  0.0019227 0.0000
  6   -337.5581112050  -0.000060611316 0.00218783  0.00003924  0.0008388 0.0000
               *** Restarting incremental Fock matrix formation ***
                                   *** Resetting DIIS ***
  7   -337.5581349528  -0.000023747816 0.00043082  0.00000701  0.0002017 0.0000
  8   -337.5581359267  -0.000000973879 0.00007452  0.00000216  0.0001127 0.0000
  9   -337.5581361717  -0.000000244985 0.00008502  0.00000186  0.0001079 0.0000
 10   -337.5581363185  -0.000000146834 0.00004998  0.00000061  0.0000136 0.0000
 11   -337.5581363214  -0.000000002922 0.00001239  0.00000014  0.0000024 0.0000
                            ***DIIS convergence achieved***

               *****************************************************
               *                     SUCCESS                       *
               *           SCF CONVERGED AFTER  12 CYCLES          *
               *****************************************************

Old exchange energy                            =    -10.546315684 Eh
New exchange energy                            =    -10.546317040 Eh
Exchange energy change after final integration =     -0.000001356 Eh
Total energy after final integration           =   -337.558137679 Eh
Final COS-X integration done in                =     0.410 sec

----------------
TOTAL SCF ENERGY
----------------

Total Energy       :         -337.55813768 Eh           -9185.42390 eV

Components:
Nuclear Repulsion  :          131.50778665 Eh            3578.50880 eV
Electronic Energy  :         -469.06592433 Eh          -12763.93271 eV
One Electron Energy:         -730.03966035 Eh          -19865.38910 eV
Two Electron Energy:          260.97373602 Eh            7101.45639 eV
Max COSX asymmetry :            0.00000042 Eh               0.00001 eV

Virial components:
Potential Energy   :         -674.54493855 Eh          -18355.30094 eV
Kinetic Energy     :          336.98680087 Eh            9169.87704 eV
Virial Ratio       :            2.00169543


DFT components:
N(Alpha)           :       16.999875310483 electrons
N(Beta)            :       15.999879539035 electrons
N(Total)           :       32.999754849518 electrons
E(XC)              :      -26.233933150543 Eh       
DFET-embed. en.    :        0.000000000000 Eh       

---------------
SCF CONVERGENCE
---------------

  Last Energy change         ...   -1.3051e-09  Tolerance :   1.0000e-08
  Last MAX-Density change    ...    0.0000e+00  Tolerance :   1.0000e-07
  Last RMS-Density change    ...    0.0000e+00  Tolerance :   5.0000e-09
  Last DIIS Error            ...    8.3653e-07  Tolerance :   5.0000e-07

             **** THE GBW FILE WAS UPDATED (/beegfs/scratch/ispackman/PFAS_EPR_calcs/benchmark/JChemEd_CF3_radical/CF3_radical_95.0_degrees_IN-PROGRESS/CF3_radical_95.0_degrees.gbw) ****
             **** DENSITY /beegfs/scratch/ispackman/PFAS_EPR_calcs/benchmark/JChemEd_CF3_radical/CF3_radical_95.0_degrees_IN-PROGRESS/CF3_radical_95.0_degrees.scfp WAS UPDATED ****
             **** ENERGY FILE WAS UPDATED (/beegfs/scratch/ispackman/PFAS_EPR_calcs/benchmark/JChemEd_CF3_radical/CF3_radical_95.0_degrees_IN-PROGRESS/CF3_radical_95.0_degrees.en.tmp) ****
----------------------
UHF SPIN CONTAMINATION
----------------------

Warning: in a DFT calculation there is little theoretical justification to 
         calculate <S**2> as in Hartree-Fock theory. We will do it anyways
         but you should keep in mind that the values have only limited relevance

Expectation value of <S**2>     :     0.752303
Ideal value S*(S+1) for S=0.5   :     0.750000
Deviation                       :     0.002303

             **** THE GBW FILE WAS UPDATED (/beegfs/scratch/ispackman/PFAS_EPR_calcs/benchmark/JChemEd_CF3_radical/CF3_radical_95.0_degrees_IN-PROGRESS/CF3_radical_95.0_degrees.gbw) ****
             **** DENSITY /beegfs/scratch/ispackman/PFAS_EPR_calcs/benchmark/JChemEd_CF3_radical/CF3_radical_95.0_degrees_IN-PROGRESS/CF3_radical_95.0_degrees.scfp WAS UPDATED ****
----------------
ORBITAL ENERGIES
----------------
                 SPIN UP ORBITALS
  NO   OCC          E(Eh)            E(eV) 
   0   1.0000     -24.829268      -675.6387 
   1   1.0000     -24.829248      -675.6382 
   2   1.0000     -24.829245      -675.6381 
   3   1.0000     -10.555533      -287.2307 
   4   1.0000      -1.495477       -40.6940 
   5   1.0000      -1.354859       -36.8676 
   6   1.0000      -1.354852       -36.8674 
   7   1.0000      -0.837964       -22.8022 
   8   1.0000      -0.718368       -19.5478 
   9   1.0000      -0.718363       -19.5476 
  10   1.0000      -0.712567       -19.3899 
  11   1.0000      -0.604766       -16.4565 
  12   1.0000      -0.604757       -16.4563 
  13   1.0000      -0.525626       -14.3030 
  14   1.0000      -0.525620       -14.3028 
  15   1.0000      -0.508882       -13.8474 
  16   1.0000      -0.457970       -12.4620 
  17   0.0000       0.072303         1.9675 
  18   0.0000       0.104101         2.8327 
  19   0.0000       0.104102         2.8327 
  20   0.0000       0.111421         3.0319 
  21   0.0000       0.156152         4.2491 
  22   0.0000       0.156153         4.2491 
  23   0.0000       0.174004         4.7349 
  24   0.0000       0.174007         4.7350 
  25   0.0000       0.194918         5.3040 
  26   0.0000       0.201183         5.4745 
  27   0.0000       0.201188         5.4746 
  28   0.0000       0.242012         6.5855 
  29   0.0000       0.282510         7.6875 
  30   0.0000       0.343973         9.3600 
  31   0.0000       0.343977         9.3601 
  32   0.0000       0.356697         9.7062 
  33   0.0000       0.376392        10.2422 
  34   0.0000       0.376394        10.2422 
  35   0.0000       0.402788        10.9604 
  36   0.0000       0.402790        10.9605 
  37   0.0000       0.407275        11.0825 
  38   0.0000       0.446217        12.1422 
  39   0.0000       0.484909        13.1950 
  40   0.0000       0.484914        13.1952 
  41   0.0000       0.540840        14.7170 
  42   0.0000       0.582975        15.8636 
  43   0.0000       0.626029        17.0351 
  44   0.0000       0.626032        17.0352 
  45   0.0000       0.706899        19.2357 
  46   0.0000       0.708854        19.2889 
  47   0.0000       0.708862        19.2891 
  48   0.0000       0.729587        19.8531 
  49   0.0000       0.750123        20.4119 
  50   0.0000       0.750126        20.4120 
  51   0.0000       0.777582        21.1591 
  52   0.0000       0.792929        21.5767 
  53   0.0000       0.792929        21.5767 
  54   0.0000       0.858595        23.3635 
  55   0.0000       0.904943        24.6247 
  56   0.0000       0.904943        24.6248 
  57   0.0000       0.932478        25.3740 
  58   0.0000       0.980793        26.6887 
  59   0.0000       0.980793        26.6887 
  60   0.0000       1.082512        29.4567 
  61   0.0000       1.082513        29.4567 
  62   0.0000       1.122100        30.5339 
  63   0.0000       1.155264        31.4363 
  64   0.0000       1.155282        31.4368 
  65   0.0000       1.174421        31.9576 
  66   0.0000       1.256023        34.1781 
  67   0.0000       1.256025        34.1782 
  68   0.0000       1.266197        34.4550 
  69   0.0000       1.291437        35.1418 
  70   0.0000       1.291438        35.1418 
  71   0.0000       1.362190        37.0671 
  72   0.0000       1.478555        40.2335 
  73   0.0000       1.478566        40.2338 
  74   0.0000       1.638555        44.5874 
  75   0.0000       2.115617        57.5689 
  76   0.0000       2.155247        58.6472 
  77   0.0000       2.155261        58.6476 
  78   0.0000       2.201652        59.9100 
  79   0.0000       2.201674        59.9106 
  80   0.0000       2.206513        60.0423 
  81   0.0000       2.210771        60.1581 
  82   0.0000       2.342240        63.7356 
  83   0.0000       2.342244        63.7357 
  84   0.0000       2.468180        67.1626 
  85   0.0000       2.468184        67.1627 
  86   0.0000       2.498983        68.0008 
  87   0.0000       2.612849        71.0992 
  88   0.0000       2.612859        71.0995 
  89   0.0000       2.896353        78.8138 
  90   0.0000       2.928584        79.6908 
  91   0.0000       2.928602        79.6913 
  92   0.0000       2.994848        81.4940 
  93   0.0000       3.018983        82.1507 
  94   0.0000       3.170620        86.2770 
  95   0.0000       3.170699        86.2791 
  96   0.0000       3.196890        86.9918 
  97   0.0000       3.289984        89.5250 
  98   0.0000       3.290048        89.5268 
  99   0.0000       3.403769        92.6213 
 100   0.0000       3.403788        92.6218 
 101   0.0000       3.436657        93.5162 
 102   0.0000       3.644101        99.1610 
 103   0.0000       3.661713        99.6403 
 104   0.0000       3.661737        99.6409 
 105   0.0000       3.806617       103.5833 
 106   0.0000       3.929101       106.9163 
 107   0.0000       3.929123       106.9169 
 108   0.0000       3.978112       108.2499 
 109   0.0000       4.114176       111.9524 
 110   0.0000       4.114202       111.9531 
 111   0.0000       4.247156       115.5710 
 112   0.0000       4.356902       118.5573 
 113   0.0000       4.356937       118.5583 
 114   0.0000       5.407008       147.1322 
 115   0.0000       5.407045       147.1332 
 116   0.0000       5.619364       152.9107 
 117   0.0000       6.914201       188.1450 
 118   0.0000       6.914215       188.1454 
 119   0.0000       6.922824       188.3796 
 120   0.0000       6.938440       188.8045 
 121   0.0000       6.938457       188.8050 
 122   0.0000       6.939106       188.8227 
 123   0.0000       6.944344       188.9652 
 124   0.0000       6.944365       188.9658 
 125   0.0000       6.976474       189.8395 
 126   0.0000       7.052658       191.9126 
 127   0.0000       7.052693       191.9135 
 128   0.0000       7.188959       195.6215 
 129   0.0000       7.241119       197.0409 
 130   0.0000       7.241130       197.0412 
 131   0.0000       7.269444       197.8116 
 132   0.0000       7.412981       201.7175 
 133   0.0000       7.532515       204.9701 
 134   0.0000       7.662651       208.5113 
 135   0.0000       7.662703       208.5128 
 136   0.0000       7.786815       211.8900 
 137   0.0000       7.786853       211.8911 
 138   0.0000       8.538793       232.3524 
 139   0.0000       8.538797       232.3525 
 140   0.0000       8.563204       233.0166 
 141   0.0000       8.607766       234.2292 
 142   0.0000       8.612897       234.3688 
 143   0.0000       8.612958       234.3705 
 144   0.0000       8.879942       241.6355 
 145   0.0000       8.879951       241.6358 
 146   0.0000       8.885575       241.7888 
 147   0.0000       9.071515       246.8485 
 148   0.0000       9.071566       246.8499 
 149   0.0000       9.091707       247.3979 
 150   0.0000       9.296753       252.9775 
 151   0.0000       9.392827       255.5918 
 152   0.0000       9.392847       255.5924 
 153   0.0000      22.623381       615.6135 
 154   0.0000      57.428901      1562.7198 
 155   0.0000      57.428903      1562.7199 
 156   0.0000      57.575288      1566.7032 

                 SPIN DOWN ORBITALS
  NO   OCC          E(Eh)            E(eV) 
   0   1.0000     -24.826525      -675.5641 
   1   1.0000     -24.826507      -675.5636 
   2   1.0000     -24.826497      -675.5633 
   3   1.0000     -10.542564      -286.8777 
   4   1.0000      -1.487088       -40.4657 
   5   1.0000      -1.346310       -36.6350 
   6   1.0000      -1.346300       -36.6347 
   7   1.0000      -0.819513       -22.3001 
   8   1.0000      -0.708123       -19.2690 
   9   1.0000      -0.708122       -19.2690 
  10   1.0000      -0.670687       -18.2503 
  11   1.0000      -0.592939       -16.1347 
  12   1.0000      -0.592929       -16.1344 
  13   1.0000      -0.518402       -14.1064 
  14   1.0000      -0.518393       -14.1062 
  15   1.0000      -0.505604       -13.7582 
  16   0.0000      -0.106908        -2.9091 
  17   0.0000       0.082760         2.2520 
  18   0.0000       0.108124         2.9422 
  19   0.0000       0.108125         2.9422 
  20   0.0000       0.125016         3.4019 
  21   0.0000       0.163421         4.4469 
  22   0.0000       0.163421         4.4469 
  23   0.0000       0.178676         4.8620 
  24   0.0000       0.178677         4.8620 
  25   0.0000       0.204932         5.5765 
  26   0.0000       0.223402         6.0791 
  27   0.0000       0.223406         6.0792 
  28   0.0000       0.242423         6.5967 
  29   0.0000       0.288330         7.8459 
  30   0.0000       0.362737         9.8706 
  31   0.0000       0.362743         9.8707 
  32   0.0000       0.369544        10.0558 
  33   0.0000       0.377753        10.2792 
  34   0.0000       0.377755        10.2792 
  35   0.0000       0.405167        11.0252 
  36   0.0000       0.405169        11.0252 
  37   0.0000       0.413601        11.2547 
  38   0.0000       0.456282        12.4161 
  39   0.0000       0.486846        13.2478 
  40   0.0000       0.486851        13.2479 
  41   0.0000       0.542520        14.7627 
  42   0.0000       0.593823        16.1587 
  43   0.0000       0.627698        17.0805 
  44   0.0000       0.627702        17.0806 
  45   0.0000       0.707084        19.2407 
  46   0.0000       0.709975        19.3194 
  47   0.0000       0.709983        19.3196 
  48   0.0000       0.738183        20.0870 
  49   0.0000       0.752570        20.4785 
  50   0.0000       0.752577        20.4787 
  51   0.0000       0.776771        21.1370 
  52   0.0000       0.795142        21.6369 
  53   0.0000       0.795144        21.6370 
  54   0.0000       0.859620        23.3915 
  55   0.0000       0.907124        24.6841 
  56   0.0000       0.907125        24.6841 
  57   0.0000       0.947599        25.7855 
  58   0.0000       0.987969        26.8840 
  59   0.0000       0.987971        26.8841 
  60   0.0000       1.085542        29.5391 
  61   0.0000       1.085545        29.5392 
  62   0.0000       1.128063        30.6962 
  63   0.0000       1.157811        31.5056 
  64   0.0000       1.157828        31.5061 
  65   0.0000       1.186699        32.2917 
  66   0.0000       1.266984        34.4764 
  67   0.0000       1.266989        34.4765 
  68   0.0000       1.267111        34.4798 
  69   0.0000       1.298052        35.3218 
  70   0.0000       1.298063        35.3221 
  71   0.0000       1.362594        37.0781 
  72   0.0000       1.480145        40.2768 
  73   0.0000       1.480166        40.2774 
  74   0.0000       1.693853        46.0921 
  75   0.0000       2.124805        57.8189 
  76   0.0000       2.164199        58.8908 
  77   0.0000       2.164217        58.8913 
  78   0.0000       2.210162        60.1416 
  79   0.0000       2.211570        60.1799 
  80   0.0000       2.211598        60.1807 
  81   0.0000       2.219986        60.4089 
  82   0.0000       2.346617        63.8547 
  83   0.0000       2.346622        63.8548 
  84   0.0000       2.473912        67.3186 
  85   0.0000       2.473913        67.3186 
  86   0.0000       2.500535        68.0430 
  87   0.0000       2.639573        71.8264 
  88   0.0000       2.639582        71.8267 
  89   0.0000       2.905637        79.0664 
  90   0.0000       2.933402        79.8219 
  91   0.0000       2.933426        79.8226 
  92   0.0000       3.000444        81.6462 
  93   0.0000       3.033120        82.5354 
  94   0.0000       3.185330        86.6772 
  95   0.0000       3.185335        86.6774 
  96   0.0000       3.249803        88.4316 
  97   0.0000       3.317479        90.2732 
  98   0.0000       3.317499        90.2737 
  99   0.0000       3.448096        93.8275 
 100   0.0000       3.449624        93.8690 
 101   0.0000       3.449628        93.8691 
 102   0.0000       3.676604       100.0455 
 103   0.0000       3.676641       100.0465 
 104   0.0000       3.682042       100.1935 
 105   0.0000       3.813514       103.7710 
 106   0.0000       3.959195       107.7352 
 107   0.0000       3.959223       107.7359 
 108   0.0000       3.984276       108.4177 
 109   0.0000       4.124402       112.2307 
 110   0.0000       4.124419       112.2311 
 111   0.0000       4.261654       115.9655 
 112   0.0000       4.368542       118.8741 
 113   0.0000       4.368595       118.8755 
 114   0.0000       5.415844       147.3726 
 115   0.0000       5.415870       147.3733 
 116   0.0000       5.631394       153.2380 
 117   0.0000       6.920019       188.3033 
 118   0.0000       6.920029       188.3036 
 119   0.0000       6.928694       188.5393 
 120   0.0000       6.940917       188.8719 
 121   0.0000       6.940931       188.8723 
 122   0.0000       6.944497       188.9694 
 123   0.0000       6.950285       189.1269 
 124   0.0000       6.950301       189.1273 
 125   0.0000       6.978075       189.8831 
 126   0.0000       7.057538       192.0454 
 127   0.0000       7.057575       192.0464 
 128   0.0000       7.193918       195.7564 
 129   0.0000       7.249543       197.2701 
 130   0.0000       7.249543       197.2701 
 131   0.0000       7.276031       197.9909 
 132   0.0000       7.420673       201.9268 
 133   0.0000       7.541042       205.2022 
 134   0.0000       7.669165       208.6886 
 135   0.0000       7.669221       208.6901 
 136   0.0000       7.795191       212.1179 
 137   0.0000       7.795236       212.1191 
 138   0.0000       8.546206       232.5541 
 139   0.0000       8.546208       232.5541 
 140   0.0000       8.573645       233.3007 
 141   0.0000       8.616932       234.4787 
 142   0.0000       8.622035       234.6175 
 143   0.0000       8.622097       234.6192 
 144   0.0000       8.888954       241.8807 
 145   0.0000       8.890228       241.9154 
 146   0.0000       8.890238       241.9157 
 147   0.0000       9.075515       246.9573 
 148   0.0000       9.075560       246.9585 
 149   0.0000       9.100377       247.6338 
 150   0.0000       9.301717       253.1126 
 151   0.0000       9.399743       255.7800 
 152   0.0000       9.399761       255.7805 
 153   0.0000      22.646784       616.2503 
 154   0.0000      57.431617      1562.7937 
 155   0.0000      57.431619      1562.7938 
 156   0.0000      57.578030      1566.7778 

                    ********************************
                    * MULLIKEN POPULATION ANALYSIS *
                    ********************************

--------------------------------------------
MULLIKEN ATOMIC CHARGES AND SPIN POPULATIONS
--------------------------------------------
   0 C :    0.578085    0.774373
   1 F :   -0.192511    0.075238
   2 F :   -0.192788    0.075195
   3 F :   -0.192785    0.075195
Sum of atomic charges         :   -0.0000000
Sum of atomic spin populations:    1.0000000

-----------------------------------------------------
MULLIKEN REDUCED ORBITAL CHARGES AND SPIN POPULATIONS
-----------------------------------------------------
CHARGE
  0 C s       :     3.175989  s :     3.175989
      pz      :     0.806201  p :     1.919663
      px      :     0.556733
      py      :     0.556730
      dz2     :     0.064861  d :     0.281425
      dxz     :     0.044871
      dyz     :     0.044865
      dx2y2   :     0.063409
      dxy     :     0.063419
      f0      :     0.001837  f :     0.044839
      f+1     :     0.007416
      f-1     :     0.007413
      f+2     :     0.008122
      f-2     :     0.008128
      f+3     :     0.003429
      f-3     :     0.008493
  1 F s       :     3.954182  s :     3.954182
      pz      :     1.680496  p :     5.229716
      px      :     1.617003
      py      :     1.932217
      dz2     :     0.000755  d :     0.007728
      dxz     :     0.005254
      dyz     :     0.002172
      dx2y2   :     0.003616
      dxy     :    -0.004069
      f0      :     0.000085  f :     0.000886
      f+1     :     0.000202
      f-1     :     0.000011
      f+2     :     0.000233
      f-2     :     0.000093
      f+3     :     0.000131
      f-3     :     0.000132
  2 F s       :     3.954295  s :     3.954295
      pz      :     1.680477  p :     5.229888
      px      :     1.853478
      py      :     1.695934
      dz2     :     0.000754  d :     0.007719
      dxz     :     0.002941
      dyz     :     0.004481
      dx2y2   :    -0.002146
      dxy     :     0.001689
      f0      :     0.000085  f :     0.000886
      f+1     :     0.000059
      f-1     :     0.000155
      f+2     :     0.000128
      f-2     :     0.000198
      f+3     :     0.000131
      f-3     :     0.000132
  3 F s       :     3.954294  s :     3.954294
      pz      :     1.680476  p :     5.229886
      px      :     1.853477
      py      :     1.695933
      dz2     :     0.000754  d :     0.007719
      dxz     :     0.002941
      dyz     :     0.004481
      dx2y2   :    -0.002146
      dxy     :     0.001689
      f0      :     0.000085  f :     0.000886
      f+1     :     0.000059
      f-1     :     0.000155
      f+2     :     0.000128
      f-2     :     0.000198
      f+3     :     0.000131
      f-3     :     0.000132

SPIN
  0 C s       :     0.281873  s :     0.281873
      pz      :     0.456576  p :     0.484540
      px      :     0.013968
      py      :     0.013996
      dz2     :     0.013113  d :     0.008629
      dxz     :    -0.001359
      dyz     :    -0.001355
      dx2y2   :    -0.000886
      dxy     :    -0.000884
      f0      :     0.000037  f :    -0.000670
      f+1     :    -0.000251
      f-1     :    -0.000250
      f+2     :    -0.000228
      f-2     :    -0.000229
      f+3     :     0.000218
      f-3     :     0.000035
  1 F s       :     0.002947  s :     0.002947
      pz      :     0.075049  p :     0.070696
      px      :    -0.003103
      py      :    -0.001250
      dz2     :    -0.000329  d :     0.001568
      dxz     :     0.001285
      dyz     :    -0.000023
      dx2y2   :     0.000756
      dxy     :    -0.000121
      f0      :     0.000006  f :     0.000027
      f+1     :     0.000009
      f-1     :     0.000002
      f+2     :     0.000004
      f-2     :     0.000000
      f+3     :     0.000007
      f-3     :    -0.000001
  2 F s       :     0.002932  s :     0.002932
      pz      :     0.075030  p :     0.070665
      px      :    -0.001718
      py      :    -0.002647
      dz2     :    -0.000329  d :     0.001571
      dxz     :     0.000304
      dyz     :     0.000957
      dx2y2   :     0.000099
      dxy     :     0.000540
      f0      :     0.000006  f :     0.000027
      f+1     :     0.000004
      f-1     :     0.000007
      f+2     :     0.000001
      f-2     :     0.000003
      f+3     :     0.000007
      f-3     :    -0.000001
  3 F s       :     0.002932  s :     0.002932
      pz      :     0.075031  p :     0.070665
      px      :    -0.001718
      py      :    -0.002647
      dz2     :    -0.000329  d :     0.001571
      dxz     :     0.000304
      dyz     :     0.000957
      dx2y2   :     0.000099
      dxy     :     0.000540
      f0      :     0.000006  f :     0.000027
      f+1     :     0.000004
      f-1     :     0.000007
      f+2     :     0.000001
      f-2     :     0.000003
      f+3     :     0.000007
      f-3     :    -0.000001


                     *******************************
                     * LOEWDIN POPULATION ANALYSIS *
                     *******************************

-------------------------------------------
LOEWDIN ATOMIC CHARGES AND SPIN POPULATIONS
-------------------------------------------
   0 C :   -0.302806    0.629838
   1 F :    0.100949    0.123391
   2 F :    0.100928    0.123385
   3 F :    0.100929    0.123385

----------------------------------------------------
LOEWDIN REDUCED ORBITAL CHARGES AND SPIN POPULATIONS
----------------------------------------------------
CHARGE
  0 C s       :     2.718728  s :     2.718728
      pz      :     0.801605  p :     2.146946
      px      :     0.672661
      py      :     0.672680
      dz2     :     0.170763  d :     1.149054
      dxz     :     0.220079
      dyz     :     0.220077
      dx2y2   :     0.269065
      dxy     :     0.269071
      f0      :     0.017575  f :     0.288078
      f+1     :     0.037860
      f-1     :     0.037858
      f+2     :     0.059662
      f-2     :     0.059669
      f+3     :     0.029948
      f-3     :     0.045506
  1 F s       :     3.544520  s :     3.544520
      pz      :     1.638905  p :     5.093215
      px      :     1.663579
      py      :     1.790731
      dz2     :     0.046678  d :     0.259201
      dxz     :     0.069601
      dyz     :     0.015317
      dx2y2   :     0.044472
      dxy     :     0.083134
      f0      :     0.000176  f :     0.002114
      f+1     :     0.000574
      f-1     :     0.000004
      f+2     :     0.000496
      f-2     :     0.000225
      f+3     :     0.000276
      f-3     :     0.000363
  2 F s       :     3.544526  s :     3.544526
      pz      :     1.638901  p :     5.093234
      px      :     1.758954
      py      :     1.695378
      dz2     :     0.046678  d :     0.259198
      dxz     :     0.028887
      dyz     :     0.056029
      dx2y2   :     0.073468
      dxy     :     0.054136
      f0      :     0.000176  f :     0.002114
      f+1     :     0.000147
      f-1     :     0.000432
      f+2     :     0.000292
      f-2     :     0.000428
      f+3     :     0.000276
      f-3     :     0.000363
  3 F s       :     3.544526  s :     3.544526
      pz      :     1.638901  p :     5.093233
      px      :     1.758954
      py      :     1.695378
      dz2     :     0.046678  d :     0.259198
      dxz     :     0.028887
      dyz     :     0.056029
      dx2y2   :     0.073468
      dxy     :     0.054136
      f0      :     0.000176  f :     0.002114
      f+1     :     0.000147
      f-1     :     0.000432
      f+2     :     0.000292
      f-2     :     0.000428
      f+3     :     0.000276
      f-3     :     0.000363

SPIN
  0 C s       :     0.167691  s :     0.167691
      pz      :     0.395270  p :     0.407821
      px      :     0.006273
      py      :     0.006278
      dz2     :     0.054398  d :     0.046013
      dxz     :    -0.003531
      dyz     :    -0.003530
      dx2y2   :    -0.000663
      dxy     :    -0.000662
      f0      :     0.002794  f :     0.008313
      f+1     :    -0.000237
      f-1     :    -0.000236
      f+2     :    -0.000169
      f-2     :    -0.000171
      f+3     :     0.006329
      f-3     :     0.000002
  1 F s       :     0.014467  s :     0.014467
      pz      :     0.077057  p :     0.082210
      px      :     0.005736
      py      :    -0.000582
      dz2     :     0.012562  d :     0.026416
      dxz     :     0.013126
      dyz     :    -0.000242
      dx2y2   :     0.000987
      dxy     :    -0.000017
      f0      :     0.000016  f :     0.000297
      f+1     :     0.000231
      f-1     :     0.000001
      f+2     :     0.000012
      f-2     :     0.000001
      f+3     :     0.000033
      f-3     :     0.000002
  2 F s       :     0.014467  s :     0.014467
      pz      :     0.077046  p :     0.082205
      px      :     0.000997
      py      :     0.004163
      dz2     :     0.012562  d :     0.026416
      dxz     :     0.003100
      dyz     :     0.009783
      dx2y2   :     0.000234
      dxy     :     0.000736
      f0      :     0.000016  f :     0.000297
      f+1     :     0.000059
      f-1     :     0.000174
      f+2     :     0.000004
      f-2     :     0.000010
      f+3     :     0.000033
      f-3     :     0.000002
  3 F s       :     0.014467  s :     0.014467
      pz      :     0.077046  p :     0.082205
      px      :     0.000997
      py      :     0.004163
      dz2     :     0.012562  d :     0.026416
      dxz     :     0.003100
      dyz     :     0.009783
      dx2y2   :     0.000234
      dxy     :     0.000736
      f0      :     0.000016  f :     0.000297
      f+1     :     0.000059
      f-1     :     0.000174
      f+2     :     0.000004
      f-2     :     0.000010
      f+3     :     0.000033
      f-3     :     0.000002


                      *****************************
                      * MAYER POPULATION ANALYSIS *
                      *****************************

  NA   - Mulliken gross atomic population
  ZA   - Total nuclear charge
  QA   - Mulliken gross atomic charge
  VA   - Mayer's total valence
  BVA  - Mayer's bonded valence
  FA   - Mayer's free valence

  ATOM       NA         ZA         QA         VA         BVA        FA
  0 C      5.4219     6.0000     0.5781     3.7933     3.1864     0.6070
  1 F      9.1925     9.0000    -0.1925     0.9919     0.9872     0.0046
  2 F      9.1928     9.0000    -0.1928     0.9915     0.9869     0.0047
  3 F      9.1928     9.0000    -0.1928     0.9915     0.9869     0.0047

  Mayer bond orders larger than 0.100000
B(  0-C ,  1-F ) :   1.0624 B(  0-C ,  2-F ) :   1.0620 B(  0-C ,  3-F ) :   1.0620 


-------
TIMINGS
-------

Total SCF time: 0 days 0 hours 0 min 11 sec 

Total time                  ....      11.583 sec
Sum of individual times     ....      10.693 sec  ( 92.3%)

Fock matrix formation       ....       8.999 sec  ( 77.7%)
  Split-RI-J                ....       1.155 sec  ( 12.8% of F)
  Chain of spheres X        ....       2.937 sec  ( 32.6% of F)
  XC integration            ....       1.983 sec  ( 22.0% of F)
    Basis function eval.    ....       0.107 sec  (  5.4% of XC)
    Density eval.           ....       0.143 sec  (  7.2% of XC)
    XC-Functional eval.     ....       0.061 sec  (  3.1% of XC)
    XC-Potential eval.      ....       0.291 sec  ( 14.7% of XC)
Diagonalization             ....       0.334 sec  (  2.9%)
Density matrix formation    ....       0.015 sec  (  0.1%)
Population analysis         ....       0.145 sec  (  1.3%)
Initial guess               ....       0.133 sec  (  1.1%)
Orbital Transformation      ....       0.000 sec  (  0.0%)
Orbital Orthonormalization  ....       0.000 sec  (  0.0%)
DIIS solution               ....       0.446 sec  (  3.9%)
Grid generation             ....       0.621 sec  (  5.4%)

Maximum memory used throughout the entire SCF-calculation: 63.2 MB


-------------------------------------------------------------------------------
                          DFT DISPERSION CORRECTION                            
                                                                               
                              DFTD3 V3.1  Rev 1                                
                              USING zero damping                               
-------------------------------------------------------------------------------
The omegaB97X-D3 functional is recognized. Fit by Chai et al.
Active option DFTDOPT                   ...         3   

molecular C6(AA) [au] = 165.444321 


            DFT-D V3
 parameters
 s6 scaling factor         :     1.0000 
 rs6 scaling factor        :     1.2810 
 s8 scaling factor         :     1.0000 
 rs8 scaling factor        :     1.0940 
 Damping factor alpha6     :    14.0000 
 Damping factor alpha8     :    16.0000 
 ad hoc parameters k1-k3   :    16.0000     1.3333    -4.0000 

 Edisp/kcal,au: -0.021544692280  -0.000034333649 
 E6   /kcal   :  -0.002725683 
 E8   /kcal   :  -0.018819009 
 % E8         :  87.348701726 

-------------------------   ----------------
Dispersion correction           -0.000034334
-------------------------   ----------------


-------------------------   --------------------
FINAL SINGLE POINT ENERGY      -337.558172012629
-------------------------   --------------------



           ************************************************************
           *        Program running with 18 parallel MPI-processes    *
           *              working on a common directory               *
           ************************************************************
------------------------------------------------------------------------------
                         ORCA SCF GRADIENT CALCULATION
------------------------------------------------------------------------------

 ... reading COSX grid (gridx3)
Gradient of the Kohn-Sham DFT energy:
Kohn-Sham wavefunction type      ... UKS
Hartree-Fock exchange scaling    ...    0.196
Number of operators              ...    2
Number of atoms                  ...    4
Basis set dimensions             ...  157
Integral neglect threshold       ... 2.5e-11
Integral primitive cutoff        ... 2.5e-12
SHARK Integral package           ... ON

Nuc. rep. gradient       (SHARK) ... done (  0.0 sec)
HCore & Overlap gradient (SHARK) ... done (  0.0 sec)
RI-J gradient            (SHARK) ... done (  0.2 sec)
COSX-gradient                    ... done (  0.5 sec)
Exchange-correlation gradient    ... done
Dispersion correction            ... done

------------------
CARTESIAN GRADIENT
------------------

WARNING: THERE ARE 3 CONSTRAINED CARTESIAN COORDINATES
   1   C   :   -0.000309559   -0.000000239    0.146115759
   2   F   :   -0.102649754    0.000000242   -0.048683194
   3   F   :    0.051508330   -0.089073193   -0.049065593
   4   F   :    0.051508133    0.089073221   -0.049064992

Difference to translation invariance:
           :    0.0000571497    0.0000000310   -0.0006980208

Difference to rotation invariance:
           :   -0.0000007498   -0.0012864221    0.0000001220

Norm of the cartesian gradient     ...    0.2454506265
RMS gradient                       ...    0.0708554926
MAX gradient                       ...    0.1461157587

-------
TIMINGS
-------

Total SCF gradient time            ...        1.206 sec

One electron gradient       ....       0.014 sec  (  1.1%)
RI-J Coulomb gradient       ....       0.166 sec  ( 13.8%)
COSX gradient               ....       0.469 sec  ( 38.9%)
XC gradient                 ....       0.181 sec  ( 15.0%)

Maximum memory used throughout the entire SCFGRAD-calculation: 37.3 MB
------------------------------------------------------------------------------
                         ORCA GEOMETRY RELAXATION STEP
------------------------------------------------------------------------------

Reading the OPT-File                    .... done
Getting information on internals        .... done
Copying old internal coords+grads       .... done
Making the new internal coordinates     .... (new redundants).... done
Validating the new internal coordinates .... (new redundants).... done
Calculating the B-matrix                .... done
Calculating the G,G- and P matrices     .... done
Transforming gradient to internals      .... done
Projecting the internal gradient        .... done
Number of atoms                         ....   4
Number of internal coordinates          ....   7
Current Energy                          ....  -337.558172013 Eh
Current gradient norm                   ....     0.245450626 Eh/bohr
Maximum allowed component of the step   ....  0.300
Current trust radius                    ....  0.300
Evaluating the initial hessian          ....  (Almloef) done
Projecting the Hessian                  .... done
Forming the augmented Hessian           .... done
Diagonalizing the augmented Hessian     .... done
Last element of RFO vector              ....  0.988498723
Lowest eigenvalues of augmented Hessian:
 -0.016414564  0.684895726  0.684895726  0.701310290 1000.000000000
Length of the computed step             ....  0.152988777
The final length of the internal step   ....  0.152988777
Converting the step to cartesian space:
 Initial RMS(Int)=    0.0578243224
Transforming coordinates:
 Iter   0:  RMS(Cart)=    0.0393426511 RMS(Int)=    0.0578243228
 Iter   1:  RMS(Cart)=    0.0000000008 RMS(Int)=    0.0000000014
Imposing constraints:
 Iter   0:  RMS(Cart)=    0.0000000003 RMS(Int)=    0.0000000003
CONVERGED
done
Storing new coordinates                 .... done

                                .--------------------.
          ----------------------|Geometry convergence|-------------------------
          Item                value                   Tolerance       Converged
          ---------------------------------------------------------------------
          RMS gradient        0.0405527923            0.0001000000      NO
          MAX gradient        0.0620058664            0.0003000000      NO
          RMS step            0.0578243224            0.0020000000      NO
          MAX step            0.0884143115            0.0040000000      NO
          ........................................................
          Max(Bonds)      0.0468      Max(Angles)    0.00
          Max(Dihed)        0.00      Max(Improp)    0.00
          ---------------------------------------------------------------------

The optimization has not yet converged - more geometry cycles are needed


    ---------------------------------------------------------------------------
                         Redundant Internal Coordinates
                            (Angstroem and degrees)

        Definition                    Value    dE/dq     Step     New-Value
    ----------------------------------------------------------------------------
     1. B(F   1,C   0)                1.3150 -0.061824  0.0466    1.3616   
     2. B(F   2,C   0)                1.3150 -0.062006  0.0468    1.3618   
     3. B(F   3,C   0)                1.3150 -0.062006  0.0468    1.3618   
     4. A(F   2,C   0,F   3)           95.00 -0.167078    0.00     95.00 C 
     5. A(F   1,C   0,F   2)           95.00 -0.079577   -0.00     95.00 C 
     6. A(F   1,C   0,F   3)           95.00 -0.079576   -0.00     95.00 C 
     7. I(F   1,F   3,F   2,C   0)     82.59  0.130189    0.00     82.59   
    ----------------------------------------------------------------------------

         *************************************************************
         *                GEOMETRY OPTIMIZATION CYCLE   2            *
         *************************************************************
---------------------------------
CARTESIAN COORDINATES (ANGSTROEM)
---------------------------------
  C      0.000043    0.000000    0.018391
  F      1.159244    0.000000   -0.695992
  F     -0.579644    1.004015   -0.696019
  F     -0.579644   -1.004015   -0.696019

----------------------------
CARTESIAN COORDINATES (A.U.)
----------------------------
  NO LB      ZA    FRAG     MASS         X           Y           Z
   0 C     6.0000    0    12.011    0.000081    0.000000    0.034754
   1 F     9.0000    0    18.998    2.190654    0.000000   -1.315235
   2 F     9.0000    0    18.998   -1.095368    1.897312   -1.315285
   3 F     9.0000    0    18.998   -1.095368   -1.897313   -1.315285

--------------------------------
INTERNAL COORDINATES (ANGSTROEM)
--------------------------------
 C      0   0   0     0.000000000000     0.00000000     0.00000000
 F      1   0   0     1.361649935059     0.00000000     0.00000000
 F      1   2   0     1.361786763151    95.00000001     0.00000000
 F      1   2   3     1.361786838544    95.00000001    95.47878177

---------------------------
INTERNAL COORDINATES (A.U.)
---------------------------
 C      0   0   0     0.000000000000     0.00000000     0.00000000
 F      1   0   0     2.573145467533     0.00000000     0.00000000
 F      1   2   0     2.573404035155    95.00000001     0.00000000
 F      1   2   3     2.573404177626    95.00000001    95.47878177



           ************************************************************
           *        Program running with 18 parallel MPI-processes    *
           *              working on a common directory               *
           ************************************************************
------------------------------------------------------------------------------
                   ___                                                        
                  /   \      - P O W E R E D   B Y -                         
                 /     \                                                     
                 |  |  |   _    _      __       _____    __    __             
                 |  |  |  | |  | |    /  \     |  _  \  |  |  /  |          
                  \  \/   | |  | |   /    \    | | | |  |  | /  /          
                 / \  \   | |__| |  /  /\  \   | |_| |  |  |/  /          
                |  |  |   |  __  | /  /__\  \  |    /   |      \           
                |  |  |   | |  | | |   __   |  |    \   |  |\   \          
                \     /   | |  | | |  |  |  |  | |\  \  |  | \   \       
                 \___/    |_|  |_| |__|  |__|  |_| \__\ |__|  \__/        
                                                                              
                      - O R C A' S   B I G   F R I E N D -                    
                                      &                                       
                       - I N T E G R A L  F E E D E R -                       
                                                                              
 v1 FN, 2020, v2 2021                                                         
------------------------------------------------------------------------------


Reading SHARK input file /beegfs/scratch/ispackman/PFAS_EPR_calcs/benchmark/JChemEd_CF3_radical/CF3_radical_95.0_degrees_IN-PROGRESS/CF3_radical_95.0_degrees.SHARKINP.tmp ... ok
----------------------
SHARK INTEGRAL PACKAGE
----------------------

Number of atoms                             ...      4
Number of basis functions                   ...    157
Number of shells                            ...     55
Maximum angular momentum                    ...      3
Integral batch strategy                     ... SHARK/LIBINT Hybrid
RI-J (if used) integral strategy            ... SPLIT-RIJ (Revised 2003 algorithm where possible)
Printlevel                                  ...      1
Contraction scheme used                     ... SEGMENTED contraction
Coulomb Range Separation                    ... NOT USED
Exchange Range Separation                   ... Long Range
   Mu parameter                             ...  0.250000
   Scaling (regular/separated)              ...  0.195728  0.804272
Finite Nucleus Model                        ... NOT USED
Auxiliary Coulomb fitting basis             ... AVAILABLE
   # of basis functions in Aux-J            ...    196
   # of shells in Aux-J                     ...     60
   Maximum angular momentum in Aux-J        ...      4
Auxiliary J/K fitting basis                 ... NOT available
Auxiliary Correlation fitting basis         ... NOT available
Auxiliary 'external' fitting basis          ... NOT available
Integral threshold                          ...     2.500000e-11
Primitive cut-off                           ...     2.500000e-12
Primitive pair pre-selection threshold      ...     2.500000e-12

Calculating pre-screening integrals         ... done (  0.0 sec) Dimension = 55
Organizing shell pair data                  ... done (  0.0 sec)
Shell pair information
Total number of shell pairs                 ...      1540
Shell pairs after pre-screening             ...      1510
Total number of primitive shell pairs       ...      4274
Primitive shell pairs kept                  ...      3575
          la=0 lb=0:    282 shell pairs
          la=1 lb=0:    360 shell pairs
          la=1 lb=1:    120 shell pairs
          la=2 lb=0:    276 shell pairs
          la=2 lb=1:    180 shell pairs
          la=2 lb=2:     78 shell pairs
          la=3 lb=0:     96 shell pairs
          la=3 lb=1:     60 shell pairs
          la=3 lb=2:     48 shell pairs
          la=3 lb=3:     10 shell pairs

Calculating one electron integrals          ... done (  0.0 sec)
Calculating RI/J V-Matrix + Cholesky decomp.... done (  0.1 sec)
Calculating Nuclear repulsion               ... done (  0.0 sec) ENN=    126.993838691429 Eh

SHARK setup successfully completed in   0.3 seconds

Maximum memory used throughout the entire GTOINT-calculation: 15.2 MB


           ************************************************************
           *        Program running with 18 parallel MPI-processes    *
           *              working on a common directory               *
           ************************************************************

Diagonalization of the overlap matrix:
Smallest eigenvalue                        ... 3.882e-04
Time for diagonalization                   ...    0.008 sec
Threshold for overlap eigenvalues          ... 1.000e-08
Number of eigenvalues below threshold      ... 0
Time for construction of square roots      ...    0.014 sec
Total time needed                          ...    0.023 sec

-------------------
DFT GRID GENERATION
-------------------

General Integration Accuracy     IntAcc      ... 4.388
Radial Grid Type                 RadialGrid  ... OptM3 with GC (2021)
Angular Grid (max. ang.)         AngularGrid ... 4 (Lebedev-302)
Angular grid pruning method      GridPruning ... 4 (adaptive)
Weight generation scheme         WeightScheme... Becke
Basis function cutoff            BFCut       ... 1.0000e-11
Integration weight cutoff        WCut        ... 1.0000e-14
Angular grids for H and He will be reduced by one unit
Partially contracted basis set               ... off
Rotationally invariant grid construction     ... off

Total number of grid points                  ...    25785
Total number of batches                      ...      405
Average number of points per batch           ...       63
Average number of grid points per atom       ...     6446
Time for grid setup =    0.146 sec

--------------------
COSX GRID GENERATION
--------------------

GRIDX 1
-------
General Integration Accuracy     IntAcc      ... 3.816
Radial Grid Type                 RadialGrid  ... OptM3 with GC (2021)
Angular Grid (max. ang.)         AngularGrid ... 1 (Lebedev-50)
Angular grid pruning method      GridPruning ... 4 (adaptive)
Weight generation scheme         WeightScheme... Becke
Basis function cutoff            BFCut       ... 1.0000e-11
Integration weight cutoff        WCut        ... 1.0000e-14
Angular grids for H and He will be reduced by one unit
Partially contracted basis set               ... on
Rotationally invariant grid construction     ... off

Total number of grid points                  ...     3274
Total number of batches                      ...       53
Average number of points per batch           ...       61
Average number of grid points per atom       ...      818
UseSFitting                                  ... on

GRIDX 2
-------
General Integration Accuracy     IntAcc      ... 4.020
Radial Grid Type                 RadialGrid  ... OptM3 with GC (2021)
Angular Grid (max. ang.)         AngularGrid ... 2 (Lebedev-110)
Angular grid pruning method      GridPruning ... 4 (adaptive)
Weight generation scheme         WeightScheme... Becke
Basis function cutoff            BFCut       ... 1.0000e-11
Integration weight cutoff        WCut        ... 1.0000e-14
Angular grids for H and He will be reduced by one unit
Partially contracted basis set               ... on
Rotationally invariant grid construction     ... off

Total number of grid points                  ...     9145
Total number of batches                      ...      144
Average number of points per batch           ...       63
Average number of grid points per atom       ...     2286
UseSFitting                                  ... on

GRIDX 3
-------
General Integration Accuracy     IntAcc      ... 4.338
Radial Grid Type                 RadialGrid  ... OptM3 with GC (2021)
Angular Grid (max. ang.)         AngularGrid ... 3 (Lebedev-194)
Angular grid pruning method      GridPruning ... 4 (adaptive)
Weight generation scheme         WeightScheme... Becke
Basis function cutoff            BFCut       ... 1.0000e-11
Integration weight cutoff        WCut        ... 1.0000e-14
Angular grids for H and He will be reduced by one unit
Partially contracted basis set               ... on
Rotationally invariant grid construction     ... off

Total number of grid points                  ...    19704
Total number of batches                      ...      310
Average number of points per batch           ...       63
Average number of grid points per atom       ...     4926
UseSFitting                                  ... on

Time for X-Grid setup             =    0.328 sec

--------------
SCF ITERATIONS
[...]
  FA   - Mayer's free valence

  ATOM       NA         ZA         QA         VA         BVA        FA
  0 C      5.4716     6.0000     0.5284     3.7665     3.1795     0.5870
  1 F      9.1758     9.0000    -0.1758     1.0125     1.0064     0.0061
  2 F      9.1763     9.0000    -0.1763     1.0120     1.0059     0.0061
  3 F      9.1763     9.0000    -0.1763     1.0120     1.0059     0.0061

  Mayer bond orders larger than 0.100000
B(  0-C ,  1-F ) :   1.0602 B(  0-C ,  2-F ) :   1.0597 B(  0-C ,  3-F ) :   1.0597 


-------
TIMINGS
-------

Total SCF time: 0 days 0 hours 0 min 4 sec 

Total time                  ....       4.601 sec
Sum of individual times     ....       3.930 sec  ( 85.4%)

Fock matrix formation       ....       3.104 sec  ( 67.5%)
  Split-RI-J                ....       0.478 sec  ( 15.4% of F)
  Chain of spheres X        ....       1.330 sec  ( 42.9% of F)
  XC integration            ....       0.551 sec  ( 17.7% of F)
    Basis function eval.    ....       0.038 sec  (  6.9% of XC)
    Density eval.           ....       0.047 sec  (  8.5% of XC)
    XC-Functional eval.     ....       0.020 sec  (  3.6% of XC)
    XC-Potential eval.      ....       0.064 sec  ( 11.6% of XC)
Diagonalization             ....       0.096 sec  (  2.1%)
Density matrix formation    ....       0.007 sec  (  0.2%)
Population analysis         ....       0.128 sec  (  2.8%)
Initial guess               ....       0.023 sec  (  0.5%)
Orbital Transformation      ....       0.000 sec  (  0.0%)
Orbital Orthonormalization  ....       0.012 sec  (  0.3%)
DIIS solution               ....       0.041 sec  (  0.9%)
Grid generation             ....       0.531 sec  ( 11.5%)

Maximum memory used throughout the entire SCF-calculation: 63.2 MB


-------------------------------------------------------------------------------
                          DFT DISPERSION CORRECTION                            
                                                                               
                              DFTD3 V3.1  Rev 1                                
                              USING zero damping                               
-------------------------------------------------------------------------------
The omegaB97X-D3 functional is recognized. Fit by Chai et al.
Active option DFTDOPT                   ...         3   

molecular C6(AA) [au] = 165.577686 


            DFT-D V3
 parameters
 s6 scaling factor         :     1.0000 
 rs6 scaling factor        :     1.2810 
 s8 scaling factor         :     1.0000 
 rs8 scaling factor        :     1.0940 
 Damping factor alpha6     :    14.0000 
 Damping factor alpha8     :    16.0000 
 ad hoc parameters k1-k3   :    16.0000     1.3333    -4.0000 

 Edisp/kcal,au: -0.029725864075  -0.000047371175 
 E6   /kcal   :  -0.003767001 
 E8   /kcal   :  -0.025958863 
 % E8         :  87.327529083 

-------------------------   ----------------
Dispersion correction           -0.000047371
-------------------------   ----------------


-------------------------   --------------------
FINAL SINGLE POINT ENERGY      -337.567050547010
-------------------------   --------------------

                                *** OPTIMIZATION RUN DONE ***

                            ***************************************
                            *     ORCA property calculations      *
                            ***************************************

                                    ---------------------
                                    Active property flags
                                    ---------------------
   (+) Dipole Moment


------------------------------------------------------------------------------
                       ORCA ELECTRIC PROPERTIES CALCULATION
------------------------------------------------------------------------------

Dipole Moment Calculation                       ... on
Quadrupole Moment Calculation                   ... off
Polarizability Calculation                      ... off
GBWName                                         ... /beegfs/scratch/ispackman/PFAS_EPR_calcs/benchmark/JChemEd_CF3_radical/CF3_radical_95.0_degrees_IN-PROGRESS/CF3_radical_95.0_degrees.gbw
Electron density                                ... /beegfs/scratch/ispackman/PFAS_EPR_calcs/benchmark/JChemEd_CF3_radical/CF3_radical_95.0_degrees_IN-PROGRESS/CF3_radical_95.0_degrees.scfp
The origin for moment calculation is the CENTER OF MASS  = (-0.000015, -0.000000 -1.080843)

-------------
DIPOLE MOMENT
-------------
                                X             Y             Z
Electronic contribution:      0.00045       0.00000       0.19791
Nuclear contribution   :      0.00005       0.00000       0.34753
                        -----------------------------------------
Total Dipole Moment    :      0.00051       0.00000       0.54543
                        -----------------------------------------
Magnitude (a.u.)       :      0.54543
Magnitude (Debye)      :      1.38638



--------------------
Rotational spectrum 
--------------------
 
Rotational constants in cm-1:     0.384598     0.384514     0.217697 
Rotational constants in MHz : 11529.954900 11527.453816  6526.384748 

 Dipole components along the rotational axes: 
x,y,z [a.u.] :    -0.000000     0.000535     0.545432 
x,y,z [Debye]:    -0.000001     0.001360     1.386378 

 


           ************************************************************
           *        Program running with 18 parallel MPI-processes    *
           *              working on a common directory               *
           ************************************************************

-------------------------------------------------------------------------------
                               ORCA SCF HESSIAN
-------------------------------------------------------------------------------

                   --------- SHARK INITIALIZATION DONE ---------

Hessian of the Kohn-Sham DFT energy:
Kohn-Sham wavefunction type                      ... UKS
Hartree-Fock exchange scaling                    ...    0.196
Number of operators                              ...    2
Number of atoms                                  ...    4
Basis set dimensions                             ...  157
Integral neglect threshold                       ... 2.5e-11
Integral primitive cutoff                        ... 2.5e-12

Setting up DFT Hessian calculations              ... 

HESS GRID
---------

General Integration Accuracy     IntAcc      ... 4.629
Radial Grid Type                 RadialGrid  ... OptM3 with GC (2021)
Angular Grid (max. ang.)         AngularGrid ... 5 (Lebedev-434)
Angular grid pruning method      GridPruning ... 4 (adaptive)
Weight generation scheme         WeightScheme... Becke
Basis function cutoff            BFCut       ... 1.0000e-11
Integration weight cutoff        WCut        ... 1.0000e-14
Angular grids for H and He will be reduced by one unit
Partially contracted basis set               ... off
Rotationally invariant grid construction     ... off

Total number of grid points                  ...    39987
Total number of batches                      ...      628
Average number of points per batch           ...       63
Average number of grid points per atom       ...     9997

Building densities                               ... done   (      0.0 sec)
Calculating rho(r) on the grid                   ... done   (      0.1 sec)
Building xc-kernel on the grid                   ... done   (      0.1 sec)
                                                     done   (      0.6 sec)

Nuclear repulsion Hessian  (SHARK)               ... done   (      0.0 sec)

----------------------------------------------
Forming right-hand sides of CP-SCF equations     ...
----------------------------------------------
One electron integral derivatives  (SHARK)       ... done   (      0.0 sec)
Transforming the overlap derivative matrices     ... done   (      0.0 sec)
Making the Q(x) pseudodensities                  ... done   (      0.0 sec)
Adding the E*S(x)*S(y) terms to the Hessian      ... done   (      0.0 sec)
Calculating energy weighted overlap derivatives  ... done   (      0.0 sec)
Two electron integral derivatives (SHARK-RI)     ... done   (      2.4 sec)
Exchange-correlation integral derivatives        ... done   (      2.3 sec)
tr(F(y)Q(x)) contribution to the Hessian         ... done   (      0.0 sec)
Response fock operator R(S(x)) (SHARK-RIJCOSX)   ... done   (      0.9 sec)
XC Response fock operator R(S(x))                ... done   (      0.5 sec)
tr(F(y)S(x)) contribution to the Hessian         ... done   (      0.0 sec)
Transforming and finalizing RHSs                 ... done   (      0.0 sec)

----------------------------------------------
Solving the CP-SCF equations (RIJCOSX)           ...
----------------------------------------------
     CP-SCF ITERATION   0:   1.6207e-01 (   0.5 sec   0/ 12 done)
     CP-SCF ITERATION   1:   6.2399e-02 (   0.5 sec   0/ 12 done)
     CP-SCF ITERATION   2:   2.6062e-02 (   0.5 sec   0/ 12 done)
     CP-SCF ITERATION   3:   8.0814e-03 (   0.5 sec   0/ 12 done)
     CP-SCF ITERATION   4:   2.8873e-03 (   0.5 sec   0/ 12 done)
     CP-SCF ITERATION   5:   1.3391e-03 (   0.5 sec   0/ 12 done)
     CP-SCF ITERATION   6:   4.9759e-04 (   0.5 sec   2/ 12 done)
     CP-SCF ITERATION   7:   1.4030e-04 (   0.5 sec   8/ 12 done)
     CP-SCF ITERATION   8:   4.5476e-05 (   0.4 sec  12/ 12 done)
                    *** THE CP-SCF HAS CONVERGED ***

                                                 ... done   (      4.5 sec)
Forming perturbed density Hessian contributions  ... done   (      0.0 sec)
2nd integral derivative contribs (SHARK-RI)      ... done   (      7.5 sec)
Exchange-correlation Hessian                     ... done   (      0.9 sec)
Dispersion correction in the Hessian             ... done   (      0.1 sec)
Dipole derivatives                               ... (center of mass: -0.000015, -0.000000 -1.080843)done   (      0.1 sec)

Total SCF Hessian time: 0 days 0 hours 0 min 20 sec 

Writing the Hessian file to the disk             ... done


Maximum memory used throughout the entire SCFHESS-calculation: 145.9 MB

-----------------------
VIBRATIONAL FREQUENCIES
-----------------------

Scaling factor for frequencies =  1.000000000  (already applied!)

   0:         0.00 cm**-1
   1:         0.00 cm**-1
   2:         0.00 cm**-1
   3:         0.00 cm**-1
   4:         0.00 cm**-1
   5:         0.00 cm**-1
   6:       608.97 cm**-1
   7:       609.53 cm**-1
   8:       808.10 cm**-1
   9:       957.15 cm**-1
  10:       958.20 cm**-1
  11:      1044.89 cm**-1


------------
NORMAL MODES
------------

These modes are the Cartesian displacements weighted by the diagonal matrix
M(i,i)=1/sqrt(m[i]) where m[i] is the mass of the displaced atom
Thus, these vectors are normalized but *not* orthogonal

                  0          1          2          3          4          5    
      0       0.000000   0.000000   0.000000   0.000000   0.000000   0.000000
      1       0.000000   0.000000   0.000000   0.000000   0.000000   0.000000
      2       0.000000   0.000000   0.000000   0.000000   0.000000   0.000000
      3       0.000000   0.000000   0.000000   0.000000   0.000000   0.000000
      4       0.000000   0.000000   0.000000   0.000000   0.000000   0.000000
      5       0.000000   0.000000   0.000000   0.000000   0.000000   0.000000
      6       0.000000   0.000000   0.000000   0.000000   0.000000   0.000000
      7       0.000000   0.000000   0.000000   0.000000   0.000000   0.000000
      8       0.000000   0.000000   0.000000   0.000000   0.000000   0.000000
      9       0.000000   0.000000   0.000000   0.000000   0.000000   0.000000
     10       0.000000   0.000000   0.000000   0.000000   0.000000   0.000000
     11       0.000000   0.000000   0.000000   0.000000   0.000000   0.000000
                  6          7          8          9         10         11    
      0       0.287302  -0.000007   0.001325  -0.000293   0.875883   0.003537
      1       0.000007   0.287086   0.000001  -0.875938  -0.000293   0.000002
      2      -0.000583  -0.000000   0.616413  -0.000002   0.002477  -0.809977
      3       0.486315  -0.000012  -0.436199   0.000104  -0.315719  -0.294064
      4      -0.000015  -0.607734   0.000000   0.051850   0.000018   0.000000
      5       0.074765  -0.000002  -0.129595  -0.000076   0.226984   0.171637
      6      -0.333988  -0.473842   0.217681  -0.114936  -0.119056   0.145914
      7      -0.474082   0.213127  -0.377073   0.250930   0.116650  -0.252446
      8      -0.037196   0.064559  -0.130058  -0.196982  -0.114341   0.170226
      9      -0.333966   0.473858   0.217681   0.115017  -0.118979   0.145913
     10       0.474092   0.213105   0.377073   0.251010  -0.116483   0.252444
     11      -0.037200  -0.064558  -0.130058   0.197059  -0.114209   0.170224


-----------
IR SPECTRUM
-----------

 Mode   freq       eps      Int      T**2         TX        TY        TZ
       cm**-1   L/(mol*cm) km/mol    a.u.
----------------------------------------------------------------------------
  6:    608.97   0.000295    1.49  0.000151  ( 0.012303  0.000000 -0.000032)
  7:    609.53   0.000294    1.49  0.000151  (-0.000000  0.012272 -0.000000)
  8:    808.10   0.003365   17.01  0.001300  ( 0.000199  0.000000  0.036049)
  9:    957.15   0.054901  277.45  0.017900  (-0.000045 -0.133790 -0.000000)
 10:    958.20   0.054937  277.63  0.017892  ( 0.133760 -0.000045  0.000160)
 11:   1044.89   0.008094   40.91  0.002417  ( 0.000561  0.000000 -0.049164)

* The epsilon (eps) is given for a Dirac delta lineshape.
** The dipole moment derivative (T) already includes vibrational overlap.

The first frequency considered to be a vibration is 6
The total number of vibrations considered is 6


--------------------------
THERMOCHEMISTRY AT 298.15K
--------------------------

Temperature         ... 298.15 K
Pressure            ... 1.00 atm
Total Mass          ... 69.00 AMU

Throughout the following assumptions are being made:
  (1) The electronic state is orbitally nondegenerate
      but the spin degeneracy is treated
  (2) There are no thermally accessible electronically excited states
  (3) Hindered rotations indicated by low frequency modes are not
      treated as such but are treated as vibrations and this may
      cause some error
  (4) All equations used are the standard statistical mechanics
      equations for an ideal gas
  (5) All vibrations are strictly harmonic

freq.     608.97  E(vib)   ...       0.10 
freq.     609.53  E(vib)   ...       0.10 
freq.     808.10  E(vib)   ...       0.05 
freq.     957.15  E(vib)   ...       0.03 
freq.     958.20  E(vib)   ...       0.03 
freq.    1044.89  E(vib)   ...       0.02 

------------
INNER ENERGY
------------

The inner energy is: U= E(el) + E(ZPE) + E(vib) + E(rot) + E(trans)
    E(el)   - is the total energy from the electronic structure calculation
              = E(kin-el) + E(nuc-el) + E(el-el) + E(nuc-nuc)
    E(ZPE)  - the the zero temperature vibrational energy from the frequency calculation
    E(vib)  - the the finite temperature correction to E(ZPE) due to population
              of excited vibrational states
    E(rot)  - is the rotational thermal energy
    E(trans)- is the translational thermal energy

Summary of contributions to the inner energy U:
Electronic energy                ...   -337.56705055 Eh
Zero point energy                ...      0.01136084 Eh       7.13 kcal/mol
Thermal vibrational correction   ...      0.00050369 Eh       0.32 kcal/mol
Thermal rotational correction    ...      0.00141627 Eh       0.89 kcal/mol
Thermal translational correction ...      0.00141627 Eh       0.89 kcal/mol
-----------------------------------------------------------------------
Total thermal energy                   -337.55235348 Eh


Summary of corrections to the electronic energy:
(perhaps to be used in another calculation)
Total thermal correction                  0.00333623 Eh       2.09 kcal/mol
Non-thermal (ZPE) correction              0.01136084 Eh       7.13 kcal/mol
-----------------------------------------------------------------------
Total correction                          0.01469706 Eh       9.22 kcal/mol


--------
ENTHALPY
--------

The enthalpy is H = U + kB*T
                kB is Boltzmann's constant
Total free energy                 ...   -337.55235348 Eh 
Thermal Enthalpy correction       ...      0.00094421 Eh       0.59 kcal/mol
-----------------------------------------------------------------------
Total Enthalpy                    ...   -337.55140927 Eh


Note: Rotational entropy computed according to Herzberg 
Infrared and Raman Spectra, Chapter V,1, Van Nostrand Reinhold, 1945 
Point Group:  Cs, Symmetry Number:   1  
Rotational constants in cm-1:     0.384598     0.384514     0.217697 

Vibrational entropy computed according to the QRRHO of S. Grimme
Chem.Eur.J. 2012 18 9955


-------
ENTROPY
-------

The entropy contributions are T*S = T*(S(el)+S(vib)+S(rot)+S(trans))
     S(el)   - electronic entropy
     S(vib)  - vibrational entropy
     S(rot)  - rotational entropy
     S(trans)- translational entropy
The entropies will be listed as multiplied by the temperature to get
units of energy

Electronic entropy                ...      0.00065446 Eh      0.41 kcal/mol
Vibrational entropy               ...      0.00065092 Eh      0.41 kcal/mol
Rotational entropy                ...      0.01113291 Eh      6.99 kcal/mol
Translational entropy             ...      0.01834582 Eh     11.51 kcal/mol
-----------------------------------------------------------------------
Final entropy term                ...      0.03078410 Eh     19.32 kcal/mol

In case the symmetry of your molecule has not been determined correctly
or in case you have a reason to use a different symmetry number we print 
out the resulting rotational entropy values for sn=1,12 :
 --------------------------------------------------------
|  sn= 1 | S(rot)=       0.01113291 Eh      6.99 kcal/mol|
|  sn= 2 | S(rot)=       0.01047845 Eh      6.58 kcal/mol|
|  sn= 3 | S(rot)=       0.01009562 Eh      6.34 kcal/mol|
|  sn= 4 | S(rot)=       0.00982399 Eh      6.16 kcal/mol|
|  sn= 5 | S(rot)=       0.00961330 Eh      6.03 kcal/mol|
|  sn= 6 | S(rot)=       0.00944116 Eh      5.92 kcal/mol|
|  sn= 7 | S(rot)=       0.00929561 Eh      5.83 kcal/mol|
|  sn= 8 | S(rot)=       0.00916954 Eh      5.75 kcal/mol|
|  sn= 9 | S(rot)=       0.00905833 Eh      5.68 kcal/mol|
|  sn=10 | S(rot)=       0.00895885 Eh      5.62 kcal/mol|
|  sn=11 | S(rot)=       0.00886886 Eh      5.57 kcal/mol|
|  sn=12 | S(rot)=       0.00878670 Eh      5.51 kcal/mol|
 --------------------------------------------------------


-------------------
GIBBS FREE ENERGY
-------------------

The Gibbs free energy is G = H - T*S

Total enthalpy                    ...   -337.55140927 Eh 
Total entropy correction          ...     -0.03078410 Eh    -19.32 kcal/mol
-----------------------------------------------------------------------
Final Gibbs free energy         ...   -337.58219337 Eh

For completeness - the Gibbs free energy minus the electronic energy
G-E(el)                           ...     -0.01514283 Eh     -9.50 kcal/mol


Timings for individual modules:

Sum of individual times         ...      107.522 sec (=   1.792 min)
GTO integral calculation        ...       13.686 sec (=   0.228 min)  12.7 %
SCF iterations                  ...       56.343 sec (=   0.939 min)  52.4 %
SCF Gradient evaluation         ...       14.269 sec (=   0.238 min)  13.3 %
Geometry relaxation             ...        0.208 sec (=   0.003 min)   0.2 %
Analytical frequency calculation...       23.016 sec (=   0.384 min)  21.4 %
                             ****ORCA TERMINATED NORMALLY****
TOTAL RUN TIME: 0 days 0 hours 2 minutes 2 seconds 116 msec

slurmID:    32260081
totalRuntime[s]:    122.152091471
