
                                 *****************
                                 * O   R   C   A *
                                 *****************

                                            #,                                       
                                            ###                                      
                                            ####                                     
                                            #####                                    
                                            ######                                   
                                           ########,                                 
                                     ,,################,,,,,                         
                               ,,#################################,,                 
                          ,,##########################################,,             
                       ,#########################################, ''#####,          
                    ,#############################################,,   '####,        
                  ,##################################################,,,,####,       
                ,###########''''           ''''###############################       
              ,#####''   ,,,,##########,,,,          '''####'''          '####       
            ,##' ,,,,###########################,,,                        '##       
           ' ,,###''''                  '''############,,,                           
         ,,##''                                '''############,,,,        ,,,,,,###''
      ,#''                                            '''#######################'''  
     '                                                          ''''####''''         
             ,#######,   #######,   ,#######,      ##                                
            ,#'     '#,  ##    ##  ,#'     '#,    #''#        ######   ,####,        
            ##       ##  ##   ,#'  ##            #'  '#       #        #'  '#        
            ##       ##  #######   ##           ,######,      #####,   #    #        
            '#,     ,#'  ##    ##  '#,     ,#' ,#      #,         ##   #,  ,#        
             '#######'   ##     ##  '#######'  #'      '#     #####' # '####'        



                  #######################################################
                  #                        -***-                        #
                  #          Department of theory and spectroscopy      #
                  #    Directorship and core code : Frank Neese         #
                  #        Max Planck Institute fuer Kohlenforschung    #
                  #                Kaiser Wilhelm Platz 1               #
                  #                 D-45470 Muelheim/Ruhr               #
                  #                      Germany                        #
                  #                                                     #
                  #                  All rights reserved                #
                  #                        -***-                        #
                  #######################################################


                         Program Version 5.0.4 -  RELEASE  -


 With contributions from (in alphabetic order):
   Daniel Aravena         : Magnetic Suceptibility
   Michael Atanasov       : Ab Initio Ligand Field Theory (pilot matlab implementation)
   Alexander A. Auer      : GIAO ZORA, VPT2 properties, NMR spectrum
   Ute Becker             : Parallelization
   Giovanni Bistoni       : ED, misc. LED, open-shell LED, HFLD
   Martin Brehm           : Molecular dynamics
   Dmytro Bykov           : SCF Hessian
   Vijay G. Chilkuri      : MRCI spin determinant printing, contributions to CSF-ICE
   Dipayan Datta          : RHF DLPNO-CCSD density
   Achintya Kumar Dutta   : EOM-CC, STEOM-CC
   Dmitry Ganyushin       : Spin-Orbit,Spin-Spin,Magnetic field MRCI
   Miquel Garcia          : C-PCM and meta-GGA Hessian, CC/C-PCM, Gaussian charge scheme
   Yang Guo               : DLPNO-NEVPT2, F12-NEVPT2, CIM, IAO-localization
   Andreas Hansen         : Spin unrestricted coupled pair/coupled cluster methods
   Benjamin Helmich-Paris : MC-RPA, TRAH-SCF, COSX integrals
   Lee Huntington         : MR-EOM, pCC
   Robert Izsak           : Overlap fitted RIJCOSX, COSX-SCS-MP3, EOM
   Marcus Kettner         : VPT2
   Christian Kollmar      : KDIIS, OOCD, Brueckner-CCSD(T), CCSD density, CASPT2, CASPT2-K
   Simone Kossmann        : Meta GGA functionals, TD-DFT gradient, OOMP2, MP2 Hessian
   Martin Krupicka        : Initial AUTO-CI
   Lucas Lang             : DCDCAS
   Marvin Lechner         : AUTO-CI (C++ implementation), FIC-MRCC
   Dagmar Lenk            : GEPOL surface, SMD
   Dimitrios Liakos       : Extrapolation schemes; Compound Job, initial MDCI parallelization
   Dimitrios Manganas     : Further ROCIS development; embedding schemes
   Dimitrios Pantazis     : SARC Basis sets
   Anastasios Papadopoulos: AUTO-CI, single reference methods and gradients
   Taras Petrenko         : DFT Hessian,TD-DFT gradient, ASA, ECA, R-Raman, ABS, FL, XAS/XES, NRVS
   Peter Pinski           : DLPNO-MP2, DLPNO-MP2 Gradient
   Christoph Reimann      : Effective Core Potentials
   Marius Retegan         : Local ZFS, SOC
   Christoph Riplinger    : Optimizer, TS searches, QM/MM, DLPNO-CCSD(T), (RO)-DLPNO pert. Triples
   Tobias Risthaus        : Range-separated hybrids, TD-DFT gradient, RPA, STAB
   Michael Roemelt        : Original ROCIS implementation
   Masaaki Saitow         : Open-shell DLPNO-CCSD energy and density
   Barbara Sandhoefer     : DKH picture change effects
   Avijit Sen             : IP-ROCIS
   Kantharuban Sivalingam : CASSCF convergence, NEVPT2, FIC-MRCI
   Bernardo de Souza      : ESD, SOC TD-DFT
   Georgi Stoychev        : AutoAux, RI-MP2 NMR, DLPNO-MP2 response
   Willem Van den Heuvel  : Paramagnetic NMR
   Boris Wezisla          : Elementary symmetry handling
   Frank Wennmohs         : Technical directorship


 We gratefully acknowledge several colleagues who have allowed us to
 interface, adapt or use parts of their codes:
   Stefan Grimme, W. Hujo, H. Kruse, P. Pracht,  : VdW corrections, initial TS optimization,
                  C. Bannwarth, S. Ehlert          DFT functionals, gCP, sTDA/sTD-DF
   Ed Valeev, F. Pavosevic, A. Kumar             : LibInt (2-el integral package), F12 methods
   Garnet Chan, S. Sharma, J. Yang, R. Olivares  : DMRG
   Ulf Ekstrom                                   : XCFun DFT Library
   Mihaly Kallay                                 : mrcc  (arbitrary order and MRCC methods)
   Jiri Pittner, Ondrej Demel                    : Mk-CCSD
   Frank Weinhold                                : gennbo (NPA and NBO analysis)
   Christopher J. Cramer and Donald G. Truhlar   : smd solvation model
   Lars Goerigk                                  : TD-DFT with DH, B97 family of functionals
   V. Asgeirsson, H. Jonsson                     : NEB implementation
   FAccTs GmbH                                   : IRC, NEB, NEB-TS, DLPNO-Multilevel, CI-OPT
                                                   MM, QMMM, 2- and 3-layer-ONIOM, Crystal-QMMM,
                                                   LR-CPCM, SF, NACMEs, symmetry and pop. for TD-DFT,
                                                   nearIR, NL-DFT gradient (VV10), updates on ESD,
                                                   ML-optimized integration grids
   S Lehtola, MJT Oliveira, MAL Marques          : LibXC Library
   Liviu Ungur et al                             : ANISO software


 Your calculation uses the libint2 library for the computation of 2-el integrals
 For citations please refer to: http://libint.valeyev.net

 Your ORCA version has been built with support for libXC version: 5.1.0
 For citations please refer to: https://tddft.org/programs/libxc/

 This ORCA versions uses:
   CBLAS   interface :  Fast vector & matrix operations
   LAPACKE interface :  Fast linear algebra routines
   SCALAPACK package :  Parallel linear algebra routines
   Shared memory     :  Shared parallel matrices
   BLAS/LAPACK       :  OpenBLAS 0.3.15  USE64BITINT DYNAMIC_ARCH NO_AFFINITY SkylakeX SINGLE_THREADED
        Core in use  :  SkylakeX
   Copyright (c) 2011-2014, The OpenBLAS Project


Your calculation utilizes the atom-pairwise dispersion correction
with the zero-damping scheme (D30)
Cite in your paper:
S.Grimme, J.Antony, S.Ehrlich and H.Krieg, J.Chem.Phys., 132, (2010), 154104 
   

XCFun DFT library Copyright 2009-2010 Ulf Ekstrom and contributors.
See http://admol.org/xcfun for more information.
This is free software; see the source code for copying conditions.
There is ABSOLUTELY NO WARRANTY; not even for MERCHANTABILITY or FITNESS FOR A PARTICULAR PURPOSE.
For details see the documentation.
Scientific users of this library should cite U. Ekstrom, L. Visscher, R. Bast, A. J. Thorvaldsen and K. Ruud;
J.Chem.Theor.Comp. 2010, DOI: 10.1021/ct100117s
XCFun Version 0.99 

================================================================================

----- Orbital basis set information -----
Your calculation utilizes the basis: def2-TZVPD
   F. Weigend and R. Ahlrichs, Phys. Chem. Chem. Phys. 7, 3297 (2005).
   D. Rappoport and F. Furche, J. Chem. Phys. 133 134105 (2010).

----- AuxJ basis set information -----
Your calculation utilizes the auxiliary basis: def2/J
   F. Weigend, Phys. Chem. Chem. Phys. 8, 1057 (2006).

================================================================================
                                        WARNINGS
                       Please study these warnings very carefully!
================================================================================


WARNING: Geometry Optimization
  ===> : Switching off AutoStart
         For restart on a previous wavefunction, please use MOREAD

INFO   : the flag for use of the SHARK integral package has been found!

================================================================================
                                       INPUT FILE
================================================================================
NAME = /beegfs/scratch/ispackman/PFAS_EPR_calcs/benchmark/JChemEd_CF3_radical/CF3_radical_99.5_degrees_IN-PROGRESS/CF3_radical_99.5_degrees.inp
|  1> ! UKS TightSCF wB97x-D3 def2-TZVPD xyzfile opt freq
|  2> 
|  3> # CF3 radical 99.5 degrees fixed
|  4> 
|  5> %maxcore 1000
|  6> %pal
|  7> nprocs 18
|  8> end
|  9> 
| 10> %geom Constraints
| 11>         { A * 0 * C }
| 12>     end
| 13> end
| 14> * xyz 0 2
| 15> C 0.00 0.00 0.00
| 16> F 1.1589160011 0.0000000000 -0.6214005974
| 17> F -0.5794580005 1.0036506978 -0.6214005974
| 18> F -0.5794580005 -1.0036506978 -0.6214005974
| 19> **                         ****END OF INPUT****
================================================================================

                       *****************************
                       * Geometry Optimization Run *
                       *****************************

Geometry optimization settings:
Update method            Update   .... BFGS
Choice of coordinates    CoordSys .... Z-matrix Internals
Initial Hessian          InHess   .... Almoef's Model

Convergence Tolerances:
Energy Change            TolE     ....  5.0000e-06 Eh
Max. Gradient            TolMAXG  ....  3.0000e-04 Eh/bohr
RMS Gradient             TolRMSG  ....  1.0000e-04 Eh/bohr
Max. Displacement        TolMAXD  ....  4.0000e-03 bohr
RMS Displacement         TolRMSD  ....  2.0000e-03 bohr
Strict Convergence                ....  False
------------------------------------------------------------------------------
                        ORCA OPTIMIZATION COORDINATE SETUP
------------------------------------------------------------------------------

The optimization will be done in new redundant internal coordinates
Making redundant internal coordinates   ...  (new redundants) done
Evaluating the initial hessian          ...  (Almloef) done
Evaluating the coordinates              ...  done
Calculating the B-matrix                .... done
Calculating the G-matrix                .... done
Diagonalizing the G-matrix              .... done
Imposing constraints:
 Iter   0:  RMS(Cart)=    0.0000000000 RMS(Int)=    0.0000000000
CONVERGED
Will constrain atom 0 coordinate 1 
Will constrain atom 0 coordinate 2 
Will constrain atom 1 coordinate 2 
The first mode is                       ....    1
The number of degrees of freedom        ....    6
Storing new coordinates                 .... done

    -----------------------------------------------------------------
                    Redundant Internal Coordinates


    -----------------------------------------------------------------
         Definition                    Initial Value    Approx d2E/dq
    -----------------------------------------------------------------
      1. B(F   1,C   0)                  1.3150         0.684896   
      2. B(F   2,C   0)                  1.3150         0.684896   
      3. B(F   3,C   0)                  1.3150         0.684896   
      4. A(F   2,C   0,F   3)           99.5000         0.440101 C 
      5. A(F   1,C   0,F   2)           99.5000         0.440101 C 
      6. A(F   1,C   0,F   3)           99.5000         0.440101 C 
      7. I(F   1,F   3,F   2,C   0)     75.2002         0.002867   
    -----------------------------------------------------------------

Number of atoms                         .... 4
Number of degrees of freedom            .... 7

         *************************************************************
         *                GEOMETRY OPTIMIZATION CYCLE   1            *
         *************************************************************
---------------------------------
CARTESIAN COORDINATES (ANGSTROEM)
---------------------------------
  C      0.000000    0.000000    0.000000
  F      1.158916    0.000000   -0.621401
  F     -0.579458    1.003651   -0.621401
  F     -0.579458   -1.003651   -0.621401

----------------------------
CARTESIAN COORDINATES (A.U.)
----------------------------
  NO LB      ZA    FRAG     MASS         X           Y           Z
   0 C     6.0000    0    12.011    0.000000    0.000000    0.000000
   1 F     9.0000    0    18.998    2.190034    0.000000   -1.174277
   2 F     9.0000    0    18.998   -1.095017    1.896625   -1.174277
   3 F     9.0000    0    18.998   -1.095017   -1.896625   -1.174277

--------------------------------
INTERNAL COORDINATES (ANGSTROEM)
--------------------------------
 C      0   0   0     0.000000000000     0.00000000     0.00000000
 F      1   0   0     1.315000000021     0.00000000     0.00000000
 F      1   2   0     1.314999999995    99.50000000     0.00000000
 F      1   2   3     1.314999999995    99.50000000   101.40091958

---------------------------
INTERNAL COORDINATES (A.U.)
---------------------------
 C      0   0   0     0.000000000000     0.00000000     0.00000000
 F      1   0   0     2.484989866146     0.00000000     0.00000000
 F      1   2   0     2.484989866097    99.50000000     0.00000000
 F      1   2   3     2.484989866097    99.50000000   101.40091958

---------------------
BASIS SET INFORMATION
---------------------
There are 2 groups of distinct atoms

 Group   1 Type C   : 12s6p3d1f contracted to 6s3p3d1f pattern {621111/411/111/1}
 Group   2 Type F   : 12s7p3d1f contracted to 6s4p3d1f pattern {621111/4111/111/1}

Atom   0C    basis set group =>   1
Atom   1F    basis set group =>   2
Atom   2F    basis set group =>   2
Atom   3F    basis set group =>   2
---------------------------------
AUXILIARY/J BASIS SET INFORMATION
---------------------------------
There are 2 groups of distinct atoms

 Group   1 Type C   : 12s5p4d2f1g contracted to 6s4p3d1f1g pattern {711111/2111/211/2/1}
 Group   2 Type F   : 12s5p4d2f1g contracted to 6s4p3d1f1g pattern {711111/2111/211/2/1}

Atom   0C    basis set group =>   1
Atom   1F    basis set group =>   2
Atom   2F    basis set group =>   2
Atom   3F    basis set group =>   2


           ************************************************************
           *        Program running with 18 parallel MPI-processes    *
           *              working on a common directory               *
           ************************************************************
------------------------------------------------------------------------------
                           ORCA GTO INTEGRAL CALCULATION
                           -- RI-GTO INTEGRALS CHOSEN --
------------------------------------------------------------------------------
------------------------------------------------------------------------------
                   ___                                                        
                  /   \      - P O W E R E D   B Y -                         
                 /     \                                                     
                 |  |  |   _    _      __       _____    __    __             
                 |  |  |  | |  | |    /  \     |  _  \  |  |  /  |          
                  \  \/   | |  | |   /    \    | | | |  |  | /  /          
                 / \  \   | |__| |  /  /\  \   | |_| |  |  |/  /          
                |  |  |   |  __  | /  /__\  \  |    /   |      \           
                |  |  |   | |  | | |   __   |  |    \   |  |\   \          
                \     /   | |  | | |  |  |  |  | |\  \  |  | \   \       
                 \___/    |_|  |_| |__|  |__|  |_| \__\ |__|  \__/        
                                                                              
                      - O R C A' S   B I G   F R I E N D -                    
                                      &                                       
                       - I N T E G R A L  F E E D E R -                       
                                                                              
 v1 FN, 2020, v2 2021                                                         
------------------------------------------------------------------------------


Reading SHARK input file /beegfs/scratch/ispackman/PFAS_EPR_calcs/benchmark/JChemEd_CF3_radical/CF3_radical_99.5_degrees_IN-PROGRESS/CF3_radical_99.5_degrees.SHARKINP.tmp ... ok
----------------------
SHARK INTEGRAL PACKAGE
----------------------

Number of atoms                             ...      4
Number of basis functions                   ...    157
Number of shells                            ...     55
Maximum angular momentum                    ...      3
Integral batch strategy                     ... SHARK/LIBINT Hybrid
RI-J (if used) integral strategy            ... SPLIT-RIJ (Revised 2003 algorithm where possible)
Printlevel                                  ...      1
Contraction scheme used                     ... SEGMENTED contraction
Coulomb Range Separation                    ... NOT USED
Exchange Range Separation                   ... Long Range
   Mu parameter                             ...  0.250000
   Scaling (regular/separated)              ...  0.195728  0.804272
Finite Nucleus Model                        ... NOT USED
Auxiliary Coulomb fitting basis             ... AVAILABLE
   # of basis functions in Aux-J            ...    196
   # of shells in Aux-J                     ...     60
   Maximum angular momentum in Aux-J        ...      4
Auxiliary J/K fitting basis                 ... NOT available
Auxiliary Correlation fitting basis         ... NOT available
Auxiliary 'external' fitting basis          ... NOT available
Integral threshold                          ...     2.500000e-11
Primitive cut-off                           ...     2.500000e-12
Primitive pair pre-selection threshold      ...     2.500000e-12

Calculating pre-screening integrals         ... done (  0.0 sec) Dimension = 55
Organizing shell pair data                  ... done (  0.0 sec)
Shell pair information
Total number of shell pairs                 ...      1540
Shell pairs after pre-screening             ...      1510
Total number of primitive shell pairs       ...      4274
Primitive shell pairs kept                  ...      3581
          la=0 lb=0:    282 shell pairs
          la=1 lb=0:    360 shell pairs
          la=1 lb=1:    120 shell pairs
          la=2 lb=0:    276 shell pairs
          la=2 lb=1:    180 shell pairs
          la=2 lb=2:     78 shell pairs
          la=3 lb=0:     96 shell pairs
          la=3 lb=1:     60 shell pairs
          la=3 lb=2:     48 shell pairs
          la=3 lb=3:     10 shell pairs

Calculating one electron integrals          ... done (  0.0 sec)
Calculating RI/J V-Matrix + Cholesky decomp.... done (  0.1 sec)
Calculating Nuclear repulsion               ... done (  0.0 sec) ENN=    129.252575596246 Eh

SHARK setup successfully completed in   0.3 seconds

Maximum memory used throughout the entire GTOINT-calculation: 15.2 MB


           ************************************************************
           *        Program running with 18 parallel MPI-processes    *
           *              working on a common directory               *
           ************************************************************
-------------------------------------------------------------------------------
                                 ORCA SCF
-------------------------------------------------------------------------------

------------
SCF SETTINGS
------------
Hamiltonian:
 Density Functional     Method          .... DFT(GTOs)
 Exchange Functional    Exchange        .... WB97X-D3
 Correlation Functional Correlation     .... WB97X-D3
 Gradients option       PostSCFGGA      .... off
 Hybrid DFT is turned on
   Fraction HF Exchange ScalHFX         ....  0.195728
   Scaling of DF-GGA-X  ScalDFX         ....  0.000000
   Scaling of DF-GGA-C  ScalDFC         ....  1.000000
   Scaling of DF-LDA-C  ScalLDAC        ....  1.000000
   Perturbative correction              ....  0.000000
   Density functional embedding theory  .... OFF
 Long-range corrected/Screened/Range-Separated Hybrid DFT is turned on
   Amount of maximum screened exact exchange              ....  0.804272
   Range separation parameter mu (erf(mu*r12)/r12)        ....  0.250000
 RI-approximation to the Coulomb term is turned on
   Number of AuxJ basis functions       .... 196
   RIJ-COSX (HFX calculated with COS-X)).... on


General Settings:
 Integral files         IntName         .... /beegfs/scratch/ispackman/PFAS_EPR_calcs/benchmark/JChemEd_CF3_radical/CF3_radical_99.5_degrees_IN-PROGRESS/CF3_radical_99.5_degrees
 Hartree-Fock type      HFTyp           .... UHF
 Total Charge           Charge          ....    0
 Multiplicity           Mult            ....    2
 Number of Electrons    NEL             ....   33
 Basis Dimension        Dim             ....  157
 Nuclear Repulsion      ENuc            ....    129.2525755962 Eh

Convergence Acceleration:
 DIIS                   CNVDIIS         .... on
   Start iteration      DIISMaxIt       ....    12
   Startup error        DIISStart       ....  0.200000
   # of expansion vecs  DIISMaxEq       ....     5
   Bias factor          DIISBfac        ....   1.050
   Max. coefficient     DIISMaxC        ....  10.000
 Trust-Rad. Augm. Hess. CNVTRAH         .... auto
   Auto Start mean grad. ratio tolernc. ....  1.125000
   Auto Start start iteration           ....    20
   Auto Start num. interpolation iter.  ....    10
   Max. Number of Micro iterations      ....    16
   Max. Number of Macro iterations      .... Maxiter - #DIIS iter
   Number of Davidson start vectors     ....     2
   Converg. threshold I  (grad. norm)   ....   1.000e-05
   Converg. threshold II (energy diff.) ....   1.000e-08
   Grad. Scal. Fac. for Micro threshold ....   0.100
   Minimum threshold for Micro iter.    ....   0.010
   NR start threshold (gradient norm)   ....   0.001
   Initial trust radius                 ....   0.400
   Minimum AH scaling param. (alpha)    ....   1.000
   Maximum AH scaling param. (alpha)    .... 1000.000
   Orbital update algorithm             .... Taylor
   White noise on init. David. guess    .... on
   Maximum white noise                  ....   0.010
   Quad. conv. algorithm                .... NR
 SOSCF                  CNVSOSCF        .... off
 Level Shifting         CNVShift        .... on
   Level shift para.    LevelShift      ....    0.2500
   Turn off err/grad.   ShiftErr        ....    0.0010
 Zerner damping         CNVZerner       .... off
 Static damping         CNVDamp         .... on
   Fraction old density DampFac         ....    0.7000
   Max. Damping (<1)    DampMax         ....    0.9800
   Min. Damping (>=0)   DampMin         ....    0.0000
   Turn off err/grad.   DampErr         ....    0.1000
 Fernandez-Rico         CNVRico         .... off

SCF Procedure:
 Maximum # iterations   MaxIter         ....   125
 SCF integral mode      SCFMode         .... Direct
   Integral package                     .... SHARK and LIBINT hybrid scheme
 Reset frequency        DirectResetFreq ....    20
 Integral Threshold     Thresh          ....  2.500e-11 Eh
 Primitive CutOff       TCut            ....  2.500e-12 Eh

Convergence Tolerance:
 Convergence Check Mode ConvCheckMode   .... Total+1el-Energy
 Convergence forced     ConvForced      .... 0
 Energy Change          TolE            ....  1.000e-08 Eh
 1-El. energy change                    ....  1.000e-05 Eh
 DIIS Error             TolErr          ....  5.000e-07


Diagonalization of the overlap matrix:
Smallest eigenvalue                        ... 3.624e-04
Time for diagonalization                   ...    0.008 sec
Threshold for overlap eigenvalues          ... 1.000e-08
Number of eigenvalues below threshold      ... 0
Time for construction of square roots      ...    0.013 sec
Total time needed                          ...    0.022 sec

Time for model grid setup =    0.075 sec

------------------------------
INITIAL GUESS: MODEL POTENTIAL
------------------------------
Loading Hartree-Fock densities                     ... done
Calculating cut-offs                               ... done
Initializing the effective Hamiltonian             ... done
Setting up the integral package (SHARK)            ... done
Starting the Coulomb interaction                   ... done (   0.1 sec)
Reading the grid                                   ... done
Mapping shells                                     ... done
Starting the XC term evaluation                    ... done (   0.0 sec)
  promolecular density results
     # of electrons  =     33.000274157
     EX              =    -35.104641856
     EC              =     -1.148842602
     EX+EC           =    -36.253484458
Transforming the Hamiltonian                       ... done (   0.0 sec)
Diagonalizing the Hamiltonian                      ... done (   0.0 sec)
Back transforming the eigenvectors                 ... done (   0.0 sec)
Now organizing SCF variables                       ... done
                      ------------------
                      INITIAL GUESS DONE (   0.2 sec)
                      ------------------
-------------------
DFT GRID GENERATION
-------------------

General Integration Accuracy     IntAcc      ... 4.388
Radial Grid Type                 RadialGrid  ... OptM3 with GC (2021)
Angular Grid (max. ang.)         AngularGrid ... 4 (Lebedev-302)
Angular grid pruning method      GridPruning ... 4 (adaptive)
Weight generation scheme         WeightScheme... Becke
Basis function cutoff            BFCut       ... 1.0000e-11
Integration weight cutoff        WCut        ... 1.0000e-14
Angular grids for H and He will be reduced by one unit
Partially contracted basis set               ... off
Rotationally invariant grid construction     ... off

Total number of grid points                  ...    25775
Total number of batches                      ...      405
Average number of points per batch           ...       63
Average number of grid points per atom       ...     6444
Time for grid setup =    0.149 sec

--------------------
COSX GRID GENERATION
--------------------

GRIDX 1
-------
General Integration Accuracy     IntAcc      ... 3.816
Radial Grid Type                 RadialGrid  ... OptM3 with GC (2021)
Angular Grid (max. ang.)         AngularGrid ... 1 (Lebedev-50)
Angular grid pruning method      GridPruning ... 4 (adaptive)
Weight generation scheme         WeightScheme... Becke
Basis function cutoff            BFCut       ... 1.0000e-11
Integration weight cutoff        WCut        ... 1.0000e-14
Angular grids for H and He will be reduced by one unit
Partially contracted basis set               ... on
Rotationally invariant grid construction     ... off

Total number of grid points                  ...     3272
Total number of batches                      ...       53
Average number of points per batch           ...       61
Average number of grid points per atom       ...      818
UseSFitting                                  ... on

GRIDX 2
-------
General Integration Accuracy     IntAcc      ... 4.020
Radial Grid Type                 RadialGrid  ... OptM3 with GC (2021)
Angular Grid (max. ang.)         AngularGrid ... 2 (Lebedev-110)
Angular grid pruning method      GridPruning ... 4 (adaptive)
Weight generation scheme         WeightScheme... Becke
Basis function cutoff            BFCut       ... 1.0000e-11
Integration weight cutoff        WCut        ... 1.0000e-14
Angular grids for H and He will be reduced by one unit
Partially contracted basis set               ... on
Rotationally invariant grid construction     ... off

Total number of grid points                  ...     9123
Total number of batches                      ...      144
Average number of points per batch           ...       63
Average number of grid points per atom       ...     2281
UseSFitting                                  ... on

GRIDX 3
-------
General Integration Accuracy     IntAcc      ... 4.338
Radial Grid Type                 RadialGrid  ... OptM3 with GC (2021)
Angular Grid (max. ang.)         AngularGrid ... 3 (Lebedev-194)
Angular grid pruning method      GridPruning ... 4 (adaptive)
Weight generation scheme         WeightScheme... Becke
Basis function cutoff            BFCut       ... 1.0000e-11
Integration weight cutoff        WCut        ... 1.0000e-14
Angular grids for H and He will be reduced by one unit
Partially contracted basis set               ... on
Rotationally invariant grid construction     ... off

Total number of grid points                  ...    19680
Total number of batches                      ...      309
Average number of points per batch           ...       63
Average number of grid points per atom       ...     4920
UseSFitting                                  ... on

Time for X-Grid setup             =    0.361 sec

--------------
SCF ITERATIONS
--------------
ITER       Energy         Delta-E        Max-DP      RMS-DP      [F,P]     Damp
               ***  Starting incremental Fock matrix formation  ***
  0   -337.5272748818   0.000000000000 0.01784436  0.00041139  0.0687857 0.7000
  1   -337.5562681455  -0.028993263700 0.01064067  0.00027305  0.0322278 0.7000
                               ***Turning on DIIS***
  2   -337.5682702728  -0.012002127256 0.02565022  0.00051653  0.0168068 0.0000
  3   -337.5895361186  -0.021265845839 0.00664897  0.00015308  0.0149928 0.0000
  4   -337.5929715536  -0.003435434930 0.00503129  0.00008109  0.0035062 0.0000
  5   -337.5931873989  -0.000215845387 0.00291510  0.00004797  0.0020193 0.0000
  6   -337.5932527427  -0.000065343755 0.00248710  0.00004345  0.0008616 0.0000
               *** Restarting incremental Fock matrix formation ***
                                   *** Resetting DIIS ***
  7   -337.5932799789  -0.000027236187 0.00049204  0.00000758  0.0001860 0.0000
  8   -337.5932808146  -0.000000835688 0.00008759  0.00000213  0.0000982 0.0000
  9   -337.5932810155  -0.000000200957 0.00005945  0.00000154  0.0000942 0.0000
 10   -337.5932811169  -0.000000101415 0.00004743  0.00000058  0.0000117 0.0000
 11   -337.5932811194  -0.000000002433 0.00001281  0.00000015  0.0000019 0.0000
                            ***DIIS convergence achieved***

               *****************************************************
               *                     SUCCESS                       *
               *           SCF CONVERGED AFTER  12 CYCLES          *
               *****************************************************

Old exchange energy                            =    -10.543272785 Eh
New exchange energy                            =    -10.543258073 Eh
Exchange energy change after final integration =      0.000014712 Eh
Total energy after final integration           =   -337.593266408 Eh
Final COS-X integration done in                =     0.397 sec

----------------
TOTAL SCF ENERGY
----------------

Total Energy       :         -337.59326641 Eh           -9186.37981 eV

Components:
Nuclear Repulsion  :          129.25257560 Eh            3517.14139 eV
Electronic Energy  :         -466.84584200 Eh          -12703.52120 eV
One Electron Energy:         -725.46048735 Eh          -19740.78346 eV
Two Electron Energy:          258.61464534 Eh            7037.26227 eV
Max COSX asymmetry :            0.00000044 Eh               0.00001 eV

Virial components:
Potential Energy   :         -674.43286825 Eh          -18352.25136 eV
Kinetic Energy     :          336.83960184 Eh            9165.87155 eV
Virial Ratio       :            2.00223746


DFT components:
N(Alpha)           :       16.999884088812 electrons
N(Beta)            :       15.999893685731 electrons
N(Total)           :       32.999777774543 electrons
E(XC)              :      -26.219129268195 Eh       
DFET-embed. en.    :        0.000000000000 Eh       

---------------
SCF CONVERGENCE
---------------

  Last Energy change         ...   -4.1348e-10  Tolerance :   1.0000e-08
  Last MAX-Density change    ...    0.0000e+00  Tolerance :   1.0000e-07
  Last RMS-Density change    ...    0.0000e+00  Tolerance :   5.0000e-09
  Last DIIS Error            ...    7.9007e-07  Tolerance :   5.0000e-07

             **** THE GBW FILE WAS UPDATED (/beegfs/scratch/ispackman/PFAS_EPR_calcs/benchmark/JChemEd_CF3_radical/CF3_radical_99.5_degrees_IN-PROGRESS/CF3_radical_99.5_degrees.gbw) ****
             **** DENSITY /beegfs/scratch/ispackman/PFAS_EPR_calcs/benchmark/JChemEd_CF3_radical/CF3_radical_99.5_degrees_IN-PROGRESS/CF3_radical_99.5_degrees.scfp WAS UPDATED ****
             **** ENERGY FILE WAS UPDATED (/beegfs/scratch/ispackman/PFAS_EPR_calcs/benchmark/JChemEd_CF3_radical/CF3_radical_99.5_degrees_IN-PROGRESS/CF3_radical_99.5_degrees.en.tmp) ****
----------------------
UHF SPIN CONTAMINATION
----------------------

Warning: in a DFT calculation there is little theoretical justification to 
         calculate <S**2> as in Hartree-Fock theory. We will do it anyways
         but you should keep in mind that the values have only limited relevance

Expectation value of <S**2>     :     0.752186
Ideal value S*(S+1) for S=0.5   :     0.750000
Deviation                       :     0.002186

             **** THE GBW FILE WAS UPDATED (/beegfs/scratch/ispackman/PFAS_EPR_calcs/benchmark/JChemEd_CF3_radical/CF3_radical_99.5_degrees_IN-PROGRESS/CF3_radical_99.5_degrees.gbw) ****
             **** DENSITY /beegfs/scratch/ispackman/PFAS_EPR_calcs/benchmark/JChemEd_CF3_radical/CF3_radical_99.5_degrees_IN-PROGRESS/CF3_radical_99.5_degrees.scfp WAS UPDATED ****
----------------
ORBITAL ENERGIES
----------------
                 SPIN UP ORBITALS
  NO   OCC          E(Eh)            E(eV) 
   0   1.0000     -24.837192      -675.8544 
   1   1.0000     -24.837190      -675.8543 
   2   1.0000     -24.837185      -675.8542 
   3   1.0000     -10.552105      -287.1374 
   4   1.0000      -1.487058       -40.4649 
   5   1.0000      -1.364301       -37.1245 
   6   1.0000      -1.364297       -37.1244 
   7   1.0000      -0.838328       -22.8121 
   8   1.0000      -0.723542       -19.6886 
   9   1.0000      -0.723534       -19.6884 
  10   1.0000      -0.708664       -19.2837 
  11   1.0000      -0.605852       -16.4861 
  12   1.0000      -0.605844       -16.4859 
  13   1.0000      -0.541396       -14.7321 
  14   1.0000      -0.541393       -14.7321 
  15   1.0000      -0.521922       -14.2022 
  16   1.0000      -0.438519       -11.9327 
  17   0.0000       0.072557         1.9744 
  18   0.0000       0.105277         2.8647 
  19   0.0000       0.105277         2.8647 
  20   0.0000       0.111726         3.0402 
  21   0.0000       0.159458         4.3391 
  22   0.0000       0.159459         4.3391 
  23   0.0000       0.172420         4.6918 
  24   0.0000       0.172420         4.6918 
  25   0.0000       0.191111         5.2004 
  26   0.0000       0.211061         5.7433 
  27   0.0000       0.211068         5.7434 
  28   0.0000       0.241060         6.5596 
  29   0.0000       0.287305         7.8180 
  30   0.0000       0.347662         9.4604 
  31   0.0000       0.347667         9.4605 
  32   0.0000       0.352772         9.5994 
  33   0.0000       0.383840        10.4448 
  34   0.0000       0.383841        10.4448 
  35   0.0000       0.402562        10.9543 
  36   0.0000       0.402564        10.9543 
  37   0.0000       0.402569        10.9545 
  38   0.0000       0.428229        11.6527 
  39   0.0000       0.486402        13.2357 
  40   0.0000       0.486408        13.2358 
  41   0.0000       0.528883        14.3916 
  42   0.0000       0.568353        15.4657 
  43   0.0000       0.625256        17.0141 
  44   0.0000       0.625258        17.0141 
  45   0.0000       0.698609        19.0101 
  46   0.0000       0.698614        19.0103 
  47   0.0000       0.708997        19.2928 
  48   0.0000       0.727325        19.7915 
  49   0.0000       0.735929        20.0256 
  50   0.0000       0.735937        20.0259 
  51   0.0000       0.768649        20.9160 
  52   0.0000       0.794472        21.6187 
  53   0.0000       0.794472        21.6187 
  54   0.0000       0.871389        23.7117 
  55   0.0000       0.902187        24.5498 
  56   0.0000       0.902191        24.5499 
  57   0.0000       0.930225        25.3127 
  58   0.0000       0.972406        26.4605 
  59   0.0000       0.972415        26.4608 
  60   0.0000       1.078552        29.3489 
  61   0.0000       1.078555        29.3490 
  62   0.0000       1.113420        30.2977 
  63   0.0000       1.162427        31.6312 
  64   0.0000       1.162437        31.6315 
  65   0.0000       1.168319        31.7916 
  66   0.0000       1.241285        33.7771 
  67   0.0000       1.250149        34.0183 
  68   0.0000       1.250149        34.0183 
  69   0.0000       1.307932        35.5906 
  70   0.0000       1.307934        35.5907 
  71   0.0000       1.344015        36.5725 
  72   0.0000       1.459063        39.7031 
  73   0.0000       1.459092        39.7039 
  74   0.0000       1.656170        45.0667 
  75   0.0000       2.126001        57.8514 
  76   0.0000       2.168641        59.0117 
  77   0.0000       2.168655        59.0121 
  78   0.0000       2.198337        59.8198 
  79   0.0000       2.213566        60.2342 
  80   0.0000       2.218754        60.3754 
  81   0.0000       2.218773        60.3759 
  82   0.0000       2.329390        63.3859 
  83   0.0000       2.329427        63.3869 
  84   0.0000       2.426448        66.0270 
  85   0.0000       2.464757        67.0694 
  86   0.0000       2.464762        67.0696 
  87   0.0000       2.592222        70.5379 
  88   0.0000       2.592230        70.5382 
  89   0.0000       2.863720        77.9258 
  90   0.0000       2.931062        79.7583 
  91   0.0000       2.931099        79.7593 
  92   0.0000       2.942446        80.0680 
  93   0.0000       3.062864        83.3448 
  94   0.0000       3.181062        86.5611 
  95   0.0000       3.181122        86.5627 
  96   0.0000       3.185382        86.6787 
  97   0.0000       3.293054        89.6085 
  98   0.0000       3.293125        89.6105 
  99   0.0000       3.401478        92.5589 
 100   0.0000       3.401495        92.5594 
 101   0.0000       3.441709        93.6537 
 102   0.0000       3.630922        98.8024 
 103   0.0000       3.630925        98.8025 
 104   0.0000       3.692032       100.4653 
 105   0.0000       3.825105       104.0864 
 106   0.0000       3.935196       107.0821 
 107   0.0000       3.957115       107.6786 
 108   0.0000       3.957179       107.6803 
 109   0.0000       4.103739       111.6684 
 110   0.0000       4.103753       111.6688 
 111   0.0000       4.205351       114.4334 
 112   0.0000       4.292479       116.8043 
 113   0.0000       4.292527       116.8056 
 114   0.0000       5.393813       146.7731 
 115   0.0000       5.393835       146.7737 
 116   0.0000       5.482695       149.1917 
 117   0.0000       6.912612       188.1017 
 118   0.0000       6.912631       188.1023 
 119   0.0000       6.916231       188.2002 
 120   0.0000       6.926347       188.4755 
 121   0.0000       6.926390       188.4766 
 122   0.0000       6.931582       188.6179 
 123   0.0000       6.936476       188.7511 
 124   0.0000       6.936526       188.7525 
 125   0.0000       6.953686       189.2194 
 126   0.0000       7.063791       192.2155 
 127   0.0000       7.063879       192.2179 
 128   0.0000       7.163158       194.9194 
 129   0.0000       7.250836       197.3053 
 130   0.0000       7.250842       197.3054 
 131   0.0000       7.263675       197.6546 
 132   0.0000       7.487093       203.7342 
 133   0.0000       7.493559       203.9101 
 134   0.0000       7.588420       206.4914 
 135   0.0000       7.588422       206.4914 
 136   0.0000       7.781333       211.7408 
 137   0.0000       7.781413       211.7430 
 138   0.0000       8.520185       231.8460 
 139   0.0000       8.520211       231.8467 
 140   0.0000       8.580782       233.4950 
 141   0.0000       8.589316       233.7272 
 142   0.0000       8.616395       234.4640 
 143   0.0000       8.616482       234.4664 
 144   0.0000       8.828327       240.2310 
 145   0.0000       8.836059       240.4414 
 146   0.0000       8.836078       240.4419 
 147   0.0000       9.031618       245.7628 
 148   0.0000       9.129646       248.4303 
 149   0.0000       9.129704       248.4319 
 150   0.0000       9.256890       251.8928 
 151   0.0000       9.401582       255.8301 
 152   0.0000       9.401630       255.8314 
 153   0.0000      22.677122       617.0759 
 154   0.0000      57.361763      1560.8929 
 155   0.0000      57.361797      1560.8938 
 156   0.0000      57.437356      1562.9499 

                 SPIN DOWN ORBITALS
  NO   OCC          E(Eh)            E(eV) 
   0   1.0000     -24.834357      -675.7772 
   1   1.0000     -24.834354      -675.7771 
   2   1.0000     -24.834342      -675.7768 
   3   1.0000     -10.539201      -286.7862 
   4   1.0000      -1.478279       -40.2260 
   5   1.0000      -1.355668       -36.8896 
   6   1.0000      -1.355664       -36.8895 
   7   1.0000      -0.820186       -22.3184 
   8   1.0000      -0.713039       -19.4028 
   9   1.0000      -0.713032       -19.4026 
  10   1.0000      -0.667536       -18.1646 
  11   1.0000      -0.594134       -16.1672 
  12   1.0000      -0.594127       -16.1670 
  13   1.0000      -0.533852       -14.5268 
  14   1.0000      -0.533848       -14.5268 
  15   1.0000      -0.518628       -14.1126 
  16   0.0000      -0.087088        -2.3698 
  17   0.0000       0.082864         2.2548 
  18   0.0000       0.108509         2.9527 
  19   0.0000       0.108510         2.9527 
  20   0.0000       0.126267         3.4359 
  21   0.0000       0.164693         4.4815 
  22   0.0000       0.164694         4.4815 
  23   0.0000       0.177883         4.8404 
  24   0.0000       0.177883         4.8404 
  25   0.0000       0.201849         5.4926 
  26   0.0000       0.233962         6.3664 
  27   0.0000       0.233963         6.3665 
  28   0.0000       0.241785         6.5793 
  29   0.0000       0.293041         7.9740 
  30   0.0000       0.365213         9.9380 
  31   0.0000       0.367651        10.0043 
  32   0.0000       0.367655        10.0044 
  33   0.0000       0.385066        10.4782 
  34   0.0000       0.385066        10.4782 
  35   0.0000       0.405335        11.0297 
  36   0.0000       0.405336        11.0298 
  37   0.0000       0.410350        11.1662 
  38   0.0000       0.438035        11.9195 
  39   0.0000       0.487968        13.2783 
  40   0.0000       0.487973        13.2784 
  41   0.0000       0.532402        14.4874 
  42   0.0000       0.574495        15.6328 
  43   0.0000       0.627138        17.0653 
  44   0.0000       0.627145        17.0655 
  45   0.0000       0.699945        19.0465 
  46   0.0000       0.699947        19.0465 
  47   0.0000       0.709254        19.2998 
  48   0.0000       0.737906        20.0794 
  49   0.0000       0.738495        20.0955 
  50   0.0000       0.738506        20.0958 
  51   0.0000       0.767857        20.8945 
  52   0.0000       0.796420        21.6717 
  53   0.0000       0.796421        21.6717 
  54   0.0000       0.872466        23.7410 
  55   0.0000       0.904613        24.6158 
  56   0.0000       0.904616        24.6159 
  57   0.0000       0.944945        25.7133 
  58   0.0000       0.979929        26.6652 
  59   0.0000       0.979940        26.6655 
  60   0.0000       1.081733        29.4354 
  61   0.0000       1.081737        29.4355 
  62   0.0000       1.117999        30.4223 
  63   0.0000       1.164522        31.6883 
  64   0.0000       1.164538        31.6887 
  65   0.0000       1.181556        32.1518 
  66   0.0000       1.243290        33.8317 
  67   0.0000       1.261096        34.3162 
  68   0.0000       1.261099        34.3162 
  69   0.0000       1.315063        35.7847 
  70   0.0000       1.315086        35.7853 
  71   0.0000       1.344394        36.5828 
  72   0.0000       1.460898        39.7530 
  73   0.0000       1.460927        39.7539 
  74   0.0000       1.711075        46.5607 
  75   0.0000       2.135387        58.1068 
  76   0.0000       2.178251        59.2732 
  77   0.0000       2.178278        59.2740 
  78   0.0000       2.201774        59.9133 
  79   0.0000       2.223861        60.5143 
  80   0.0000       2.226850        60.5957 
  81   0.0000       2.226866        60.5961 
  82   0.0000       2.334084        63.5136 
  83   0.0000       2.334120        63.5146 
  84   0.0000       2.427789        66.0635 
  85   0.0000       2.470976        67.2387 
  86   0.0000       2.470978        67.2387 
  87   0.0000       2.617419        71.2236 
  88   0.0000       2.617438        71.2241 
  89   0.0000       2.871197        78.1292 
  90   0.0000       2.935917        79.8904 
  91   0.0000       2.935951        79.8913 
  92   0.0000       2.947201        80.1974 
  93   0.0000       3.080919        83.8361 
  94   0.0000       3.195171        86.9450 
  95   0.0000       3.195217        86.9463 
  96   0.0000       3.238436        88.1223 
  97   0.0000       3.320724        90.3615 
  98   0.0000       3.320780        90.3630 
  99   0.0000       3.446152        93.7746 
 100   0.0000       3.446152        93.7746 
 101   0.0000       3.450708        93.8985 
 102   0.0000       3.648601        99.2835 
 103   0.0000       3.648619        99.2840 
 104   0.0000       3.727624       101.4338 
 105   0.0000       3.834174       104.3332 
 106   0.0000       3.942028       107.2680 
 107   0.0000       3.986354       108.4742 
 108   0.0000       3.986400       108.4755 
 109   0.0000       4.111784       111.8873 
 110   0.0000       4.111789       111.8875 
 111   0.0000       4.217912       114.7752 
 112   0.0000       4.303153       117.0948 
 113   0.0000       4.303207       117.0962 
 114   0.0000       5.403146       147.0271 
 115   0.0000       5.403171       147.0277 
 116   0.0000       5.495340       149.5358 
 117   0.0000       6.918300       188.2565 
 118   0.0000       6.918320       188.2571 
 119   0.0000       6.921524       188.3442 
 120   0.0000       6.929396       188.5585 
 121   0.0000       6.929434       188.5595 
 122   0.0000       6.936997       188.7653 
 123   0.0000       6.941921       188.8993 
 124   0.0000       6.941964       188.9005 
 125   0.0000       6.955975       189.2817 
 126   0.0000       7.069159       192.3616 
 127   0.0000       7.069243       192.3639 
 128   0.0000       7.167503       195.0377 
 129   0.0000       7.258691       197.5190 
 130   0.0000       7.258696       197.5191 
 131   0.0000       7.270088       197.8291 
 132   0.0000       7.496587       203.9925 
 133   0.0000       7.501608       204.1291 
 134   0.0000       7.595013       206.6708 
 135   0.0000       7.595018       206.6709 
 136   0.0000       7.789274       211.9569 
 137   0.0000       7.789357       211.9592 
 138   0.0000       8.527781       232.0527 
 139   0.0000       8.527805       232.0534 
 140   0.0000       8.588774       233.7124 
 141   0.0000       8.599423       234.0022 
 142   0.0000       8.625981       234.7249 
 143   0.0000       8.626068       234.7272 
 144   0.0000       8.833145       240.3621 
 145   0.0000       8.845583       240.7005 
 146   0.0000       8.845605       240.7012 
 147   0.0000       9.040487       246.0042 
 148   0.0000       9.134367       248.5588 
 149   0.0000       9.134417       248.5601 
 150   0.0000       9.262526       252.0461 
 151   0.0000       9.408345       256.0141 
 152   0.0000       9.408393       256.0154 
 153   0.0000      22.700303       617.7066 
 154   0.0000      57.364569      1560.9693 
 155   0.0000      57.364603      1560.9702 
 156   0.0000      57.440191      1563.0271 

                    ********************************
                    * MULLIKEN POPULATION ANALYSIS *
                    ********************************

--------------------------------------------
MULLIKEN ATOMIC CHARGES AND SPIN POPULATIONS
--------------------------------------------
   0 C :    0.568826    0.780236
   1 F :   -0.189568    0.073285
   2 F :   -0.189629    0.073239
   3 F :   -0.189628    0.073239
Sum of atomic charges         :   -0.0000000
Sum of atomic spin populations:    1.0000000

-----------------------------------------------------
MULLIKEN REDUCED ORBITAL CHARGES AND SPIN POPULATIONS
-----------------------------------------------------
CHARGE
  0 C s       :     3.185952  s :     3.185952
      pz      :     0.827082  p :     1.911008
      px      :     0.541957
      py      :     0.541969
      dz2     :     0.061318  d :     0.290616
      dxz     :     0.046558
      dyz     :     0.046569
      dx2y2   :     0.068085
      dxy     :     0.068087
      f0      :     0.001490  f :     0.043598
      f+1     :     0.006870
      f-1     :     0.006870
      f+2     :     0.007529
      f-2     :     0.007533
      f+3     :     0.003908
      f-3     :     0.009398
  1 F s       :     3.953238  s :     3.953238
      pz      :     1.724718  p :     5.226893
      px      :     1.574039
      py      :     1.928136
      dz2     :     0.000674  d :     0.008586
      dxz     :     0.005263
      dyz     :     0.001724
      dx2y2   :     0.004244
      dxy     :    -0.003319
      f0      :     0.000085  f :     0.000851
      f+1     :     0.000179
      f-1     :     0.000006
      f+2     :     0.000224
      f-2     :     0.000076
      f+3     :     0.000151
      f-3     :     0.000131
  2 F s       :     3.953287  s :     3.953287
      pz      :     1.724693  p :     5.226925
      px      :     1.839630
      py      :     1.662601
      dz2     :     0.000671  d :     0.008566
      dxz     :     0.002606
      dyz     :     0.004375
      dx2y2   :    -0.001430
      dxy     :     0.002345
      f0      :     0.000085  f :     0.000851
      f+1     :     0.000049
      f-1     :     0.000136
      f+2     :     0.000113
      f-2     :     0.000187
      f+3     :     0.000151
      f-3     :     0.000131
  3 F s       :     3.953285  s :     3.953285
      pz      :     1.724693  p :     5.226925
      px      :     1.839630
      py      :     1.662601
      dz2     :     0.000671  d :     0.008566
      dxz     :     0.002606
      dyz     :     0.004375
      dx2y2   :    -0.001430
      dxy     :     0.002345
      f0      :     0.000085  f :     0.000851
      f+1     :     0.000049
      f-1     :     0.000136
      f+2     :     0.000113
      f-2     :     0.000187
      f+3     :     0.000151
      f-3     :     0.000131

SPIN
  0 C s       :     0.277561  s :     0.277561
      pz      :     0.467857  p :     0.493671
      px      :     0.012898
      py      :     0.012916
      dz2     :     0.014475  d :     0.009740
      dxz     :    -0.001447
      dyz     :    -0.001447
      dx2y2   :    -0.000922
      dxy     :    -0.000919
      f0      :    -0.000022  f :    -0.000736
      f+1     :    -0.000324
      f-1     :    -0.000323
      f+2     :    -0.000207
      f-2     :    -0.000208
      f+3     :     0.000308
      f-3     :     0.000041
  1 F s       :     0.003165  s :     0.003165
      pz      :     0.072775  p :     0.068607
      px      :    -0.002940
      py      :    -0.001228
      dz2     :    -0.000119  d :     0.001483
      dxz     :     0.000909
      dyz     :    -0.000016
      dx2y2   :     0.000811
      dxy     :    -0.000102
      f0      :     0.000003  f :     0.000029
      f+1     :     0.000015
      f-1     :     0.000001
      f+2     :     0.000002
      f-2     :     0.000001
      f+3     :     0.000008
      f-3     :    -0.000000
  2 F s       :     0.003159  s :     0.003159
      pz      :     0.072728  p :     0.068565
      px      :    -0.001650
      py      :    -0.002513
      dz2     :    -0.000119  d :     0.001487
      dxz     :     0.000216
      dyz     :     0.000677
      dx2y2   :     0.000126
      dxy     :     0.000586
      f0      :     0.000003  f :     0.000029
      f+1     :     0.000005
      f-1     :     0.000011
      f+2     :     0.000002
      f-2     :     0.000002
      f+3     :     0.000008
      f-3     :    -0.000000
  3 F s       :     0.003158  s :     0.003158
      pz      :     0.072728  p :     0.068565
      px      :    -0.001650
      py      :    -0.002513
      dz2     :    -0.000119  d :     0.001487
      dxz     :     0.000216
      dyz     :     0.000677
      dx2y2   :     0.000126
      dxy     :     0.000586
      f0      :     0.000003  f :     0.000029
      f+1     :     0.000005
      f-1     :     0.000011
      f+2     :     0.000002
      f-2     :     0.000002
      f+3     :     0.000008
      f-3     :    -0.000000


                     *******************************
                     * LOEWDIN POPULATION ANALYSIS *
                     *******************************

-------------------------------------------
LOEWDIN ATOMIC CHARGES AND SPIN POPULATIONS
-------------------------------------------
   0 C :   -0.338519    0.625429
   1 F :    0.112834    0.124873
   2 F :    0.112842    0.124849
   3 F :    0.112843    0.124849

----------------------------------------------------
LOEWDIN REDUCED ORBITAL CHARGES AND SPIN POPULATIONS
----------------------------------------------------
CHARGE
  0 C s       :     2.710253  s :     2.710253
      pz      :     0.804427  p :     2.162067
      px      :     0.678806
      py      :     0.678834
      dz2     :     0.172357  d :     1.184856
      dxz     :     0.214684
      dyz     :     0.214692
      dx2y2   :     0.291561
      dxy     :     0.291561
      f0      :     0.016310  f :     0.281344
      f+1     :     0.033818
      f-1     :     0.033817
      f+2     :     0.055723
      f-2     :     0.055727
      f+3     :     0.034941
      f-3     :     0.051007
  1 F s       :     3.551351  s :     3.551351
      pz      :     1.670219  p :     5.095599
      px      :     1.637003
      py      :     1.788377
      dz2     :     0.041036  d :     0.238187
      dxz     :     0.066725
      dyz     :     0.011848
      dx2y2   :     0.043534
      dxy     :     0.075044
      f0      :     0.000174  f :     0.002029
      f+1     :     0.000519
      f-1     :     0.000004
      f+2     :     0.000489
      f-2     :     0.000175
      f+3     :     0.000310
      f-3     :     0.000359
  2 F s       :     3.551350  s :     3.551350
      pz      :     1.670231  p :     5.095598
      px      :     1.750528
      py      :     1.674840
      dz2     :     0.041035  d :     0.238181
      dxz     :     0.025567
      dyz     :     0.053005
      dx2y2   :     0.067164
      dxy     :     0.051410
      f0      :     0.000174  f :     0.002029
      f+1     :     0.000133
      f-1     :     0.000390
      f+2     :     0.000254
      f-2     :     0.000410
      f+3     :     0.000310
      f-3     :     0.000359
  3 F s       :     3.551350  s :     3.551350
      pz      :     1.670231  p :     5.095598
      px      :     1.750528
      py      :     1.674839
      dz2     :     0.041035  d :     0.238181
      dxz     :     0.025567
      dyz     :     0.053005
      dx2y2   :     0.067164
      dxy     :     0.051410
      f0      :     0.000174  f :     0.002029
      f+1     :     0.000133
      f-1     :     0.000390
      f+2     :     0.000254
      f-2     :     0.000410
      f+3     :     0.000310
      f-3     :     0.000359

SPIN
  0 C s       :     0.159391  s :     0.159391
      pz      :     0.397814  p :     0.409463
      px      :     0.005820
      py      :     0.005829
      dz2     :     0.056968  d :     0.048382
      dxz     :    -0.003645
      dyz     :    -0.003646
      dx2y2   :    -0.000649
      dxy     :    -0.000646
      f0      :     0.001690  f :     0.008193
      f+1     :    -0.000222
      f-1     :    -0.000221
      f+2     :    -0.000179
      f-2     :    -0.000181
      f+3     :     0.007303
      f-3     :     0.000003
  1 F s       :     0.014790  s :     0.014790
      pz      :     0.076412  p :     0.081527
      px      :     0.005757
      py      :    -0.000643
      dz2     :     0.010732  d :     0.028243
      dxz     :     0.016675
      dyz     :    -0.000203
      dx2y2   :     0.001045
      dxy     :    -0.000005
      f0      :     0.000002  f :     0.000313
      f+1     :     0.000248
      f-1     :     0.000001
      f+2     :     0.000031
      f-2     :     0.000001
      f+3     :     0.000028
      f-3     :     0.000003
  2 F s       :     0.014790  s :     0.014790
      pz      :     0.076380  p :     0.081501
      px      :     0.000960
      py      :     0.004161
      dz2     :     0.010732  d :     0.028244
      dxz     :     0.004016
      dyz     :     0.012457
      dx2y2   :     0.000257
      dxy     :     0.000782
      f0      :     0.000002  f :     0.000313
      f+1     :     0.000063
      f-1     :     0.000187
      f+2     :     0.000009
      f-2     :     0.000023
      f+3     :     0.000028
      f-3     :     0.000003
  3 F s       :     0.014790  s :     0.014790
      pz      :     0.076380  p :     0.081501
      px      :     0.000960
      py      :     0.004161
      dz2     :     0.010732  d :     0.028244
      dxz     :     0.004016
      dyz     :     0.012457
      dx2y2   :     0.000257
      dxy     :     0.000782
      f0      :     0.000002  f :     0.000313
      f+1     :     0.000063
      f-1     :     0.000187
      f+2     :     0.000009
      f-2     :     0.000023
      f+3     :     0.000028
      f-3     :     0.000003


                      *****************************
                      * MAYER POPULATION ANALYSIS *
                      *****************************

  NA   - Mulliken gross atomic population
  ZA   - Total nuclear charge
  QA   - Mulliken gross atomic charge
  VA   - Mayer's total valence
  BVA  - Mayer's bonded valence
  FA   - Mayer's free valence

  ATOM       NA         ZA         QA         VA         BVA        FA
  0 C      5.4312     6.0000     0.5688     3.7961     3.1793     0.6167
  1 F      9.1896     9.0000    -0.1896     1.0266     1.0224     0.0043
  2 F      9.1896     9.0000    -0.1896     1.0263     1.0221     0.0043
  3 F      9.1896     9.0000    -0.1896     1.0263     1.0221     0.0043

  Mayer bond orders larger than 0.100000
B(  0-C ,  1-F ) :   1.0600 B(  0-C ,  2-F ) :   1.0597 B(  0-C ,  3-F ) :   1.0597 


-------
TIMINGS
-------

Total SCF time: 0 days 0 hours 0 min 10 sec 

Total time                  ....      10.880 sec
Sum of individual times     ....      10.094 sec  ( 92.8%)

Fock matrix formation       ....       8.462 sec  ( 77.8%)
  Split-RI-J                ....       1.106 sec  ( 13.1% of F)
  Chain of spheres X        ....       2.871 sec  ( 33.9% of F)
  XC integration            ....       1.869 sec  ( 22.1% of F)
    Basis function eval.    ....       0.114 sec  (  6.1% of XC)
    Density eval.           ....       0.146 sec  (  7.8% of XC)
    XC-Functional eval.     ....       0.062 sec  (  3.3% of XC)
    XC-Potential eval.      ....       0.290 sec  ( 15.5% of XC)
Diagonalization             ....       0.359 sec  (  3.3%)
Density matrix formation    ....       0.012 sec  (  0.1%)
Population analysis         ....       0.125 sec  (  1.1%)
Initial guess               ....       0.126 sec  (  1.2%)
Orbital Transformation      ....       0.000 sec  (  0.0%)
Orbital Orthonormalization  ....       0.000 sec  (  0.0%)
DIIS solution               ....       0.425 sec  (  3.9%)
Grid generation             ....       0.585 sec  (  5.4%)

Maximum memory used throughout the entire SCF-calculation: 63.2 MB


-------------------------------------------------------------------------------
                          DFT DISPERSION CORRECTION                            
                                                                               
                              DFTD3 V3.1  Rev 1                                
                              USING zero damping                               
-------------------------------------------------------------------------------
The omegaB97X-D3 functional is recognized. Fit by Chai et al.
Active option DFTDOPT                   ...         3   

molecular C6(AA) [au] = 165.533534 


            DFT-D V3
 parameters
 s6 scaling factor         :     1.0000 
 rs6 scaling factor        :     1.2810 
 s8 scaling factor         :     1.0000 
 rs8 scaling factor        :     1.0940 
 Damping factor alpha6     :    14.0000 
 Damping factor alpha8     :    16.0000 
 ad hoc parameters k1-k3   :    16.0000     1.3333    -4.0000 

 Edisp/kcal,au: -0.028184531790  -0.000044914906 
 E6   /kcal   :  -0.003573057 
 E8   /kcal   :  -0.024611475 
 % E8         :  87.322631903 

-------------------------   ----------------
Dispersion correction           -0.000044915
-------------------------   ----------------


-------------------------   --------------------
FINAL SINGLE POINT ENERGY      -337.593311322596
-------------------------   --------------------



           ************************************************************
           *        Program running with 18 parallel MPI-processes    *
           *              working on a common directory               *
           ************************************************************
------------------------------------------------------------------------------
                         ORCA SCF GRADIENT CALCULATION
------------------------------------------------------------------------------

 ... reading COSX grid (gridx3)
Gradient of the Kohn-Sham DFT energy:
Kohn-Sham wavefunction type      ... UKS
Hartree-Fock exchange scaling    ...    0.196
Number of operators              ...    2
Number of atoms                  ...    4
Basis set dimensions             ...  157
Integral neglect threshold       ... 2.5e-11
Integral primitive cutoff        ... 2.5e-12
SHARK Integral package           ... ON

Nuc. rep. gradient       (SHARK) ... done (  0.0 sec)
HCore & Overlap gradient (SHARK) ... done (  0.0 sec)
RI-J gradient            (SHARK) ... done (  0.2 sec)
COSX-gradient                    ... done (  0.5 sec)
Exchange-correlation gradient    ... done
Dispersion correction            ... done

------------------
CARTESIAN GRADIENT
------------------

WARNING: THERE ARE 3 CONSTRAINED CARTESIAN COORDINATES
   1   C   :   -0.000183282   -0.000000033    0.114390316
   2   F   :   -0.062997031    0.000000019   -0.038380104
   3   F   :    0.031727075   -0.054331516   -0.037841186
   4   F   :    0.031727210    0.054331300   -0.037840998

Difference to translation invariance:
           :    0.0002739728   -0.0000002295    0.0003280286

Difference to rotation invariance:
           :   -0.0000005865    0.0006435119    0.0000005329

Norm of the cartesian gradient     ...    0.1711950929
RMS gradient                       ...    0.0494197665
MAX gradient                       ...    0.1143903165

-------
TIMINGS
-------

Total SCF gradient time            ...        1.229 sec

One electron gradient       ....       0.012 sec  (  1.0%)
RI-J Coulomb gradient       ....       0.155 sec  ( 12.6%)
COSX gradient               ....       0.458 sec  ( 37.3%)
XC gradient                 ....       0.244 sec  ( 19.8%)

Maximum memory used throughout the entire SCFGRAD-calculation: 37.2 MB
------------------------------------------------------------------------------
                         ORCA GEOMETRY RELAXATION STEP
------------------------------------------------------------------------------

Reading the OPT-File                    .... done
Getting information on internals        .... done
Copying old internal coords+grads       .... done
Making the new internal coordinates     .... (new redundants).... done
Validating the new internal coordinates .... (new redundants).... done
Calculating the B-matrix                .... done
Calculating the G,G- and P matrices     .... done
Transforming gradient to internals      .... done
Projecting the internal gradient        .... done
Number of atoms                         ....   4
Number of internal coordinates          ....   7
Current Energy                          ....  -337.593311323 Eh
Current gradient norm                   ....     0.171195093 Eh/bohr
Maximum allowed component of the step   ....  0.300
Current trust radius                    ....  0.300
Evaluating the initial hessian          ....  (Almloef) done
Projecting the Hessian                  .... done
Forming the augmented Hessian           .... done
Diagonalizing the augmented Hessian     .... done
Last element of RFO vector              ....  0.995618991
Lowest eigenvalues of augmented Hessian:
 -0.006094489  0.684895726  0.684895726  0.690990215 1000.000000000
Length of the computed step             ....  0.093914512
The final length of the internal step   ....  0.093914512
Converting the step to cartesian space:
 Initial RMS(Int)=    0.0354963490
Transforming coordinates:
 Iter   0:  RMS(Cart)=    0.0247366226 RMS(Int)=    0.0354963490
 Iter   1:  RMS(Cart)=    0.0000000000 RMS(Int)=    0.0000000000
Imposing constraints:
 Iter   0:  RMS(Cart)=    0.0000000016 RMS(Int)=    0.0000000021
CONVERGED
done
Storing new coordinates                 .... done

                                .--------------------.
          ----------------------|Geometry convergence|-------------------------
          Item                value                   Tolerance       Converged
          ---------------------------------------------------------------------
          RMS gradient        0.0245276298            0.0001000000      NO
          MAX gradient        0.0374882254            0.0003000000      NO
          RMS step            0.0354963490            0.0020000000      NO
          MAX step            0.0542529034            0.0040000000      NO
          ........................................................
          Max(Bonds)      0.0287      Max(Angles)    0.00
          Max(Dihed)        0.00      Max(Improp)    0.00
          ---------------------------------------------------------------------

The optimization has not yet converged - more geometry cycles are needed


    ---------------------------------------------------------------------------
                         Redundant Internal Coordinates
                            (Angstroem and degrees)

        Definition                    Value    dE/dq     Step     New-Value
    ----------------------------------------------------------------------------
     1. B(F   1,C   0)                1.3150 -0.037488  0.0287    1.3437   
     2. B(F   2,C   0)                1.3150 -0.037456  0.0287    1.3437   
     3. B(F   3,C   0)                1.3150 -0.037456  0.0287    1.3437   
     4. A(F   2,C   0,F   3)           99.50 -0.108789    0.00     99.50 C 
     5. A(F   1,C   0,F   2)           99.50 -0.049466   -0.00     99.50 C 
     6. A(F   1,C   0,F   3)           99.50 -0.049466    0.00     99.50 C 
     7. I(F   1,F   3,F   2,C   0)     75.20  0.095076   -0.00     75.20   
    ----------------------------------------------------------------------------

         *************************************************************
         *                GEOMETRY OPTIMIZATION CYCLE   2            *
         *************************************************************
---------------------------------
CARTESIAN COORDINATES (ANGSTROEM)
---------------------------------
  C     -0.000008    0.000000    0.010169
  F      1.184213    0.000000   -0.624793
  F     -0.592103    1.025544   -0.624789
  F     -0.592103   -1.025544   -0.624789

----------------------------
CARTESIAN COORDINATES (A.U.)
----------------------------
  NO LB      ZA    FRAG     MASS         X           Y           Z
   0 C     6.0000    0    12.011   -0.000014    0.000000    0.019217
   1 F     9.0000    0    18.998    2.237838    0.000000   -1.180688
   2 F     9.0000    0    18.998   -1.118912    1.937997   -1.180680
   3 F     9.0000    0    18.998   -1.118912   -1.937997   -1.180680

--------------------------------
INTERNAL COORDINATES (ANGSTROEM)
--------------------------------
 C      0   0   0     0.000000000000     0.00000000     0.00000000
 F      1   0   0     1.343709399990     0.00000000     0.00000000
 F      1   2   0     1.343684520808    99.50000010     0.00000000
 F      1   2   3     1.343684527226    99.50000010   101.40091983

---------------------------
INTERNAL COORDINATES (A.U.)
---------------------------
 C      0   0   0     0.000000000000     0.00000000     0.00000000
 F      1   0   0     2.539242769557     0.00000000     0.00000000
 F      1   2   0     2.539195754716    99.50000010     0.00000000
 F      1   2   3     2.539195766845    99.50000010   101.40091983



           ************************************************************
           *        Program running with 18 parallel MPI-processes    *
           *              working on a common directory               *
           ************************************************************
------------------------------------------------------------------------------
                   ___                                                        
                  /   \      - P O W E R E D   B Y -                         
                 /     \                                                     
                 |  |  |   _    _      __       _____    __    __             
                 |  |  |  | |  | |    /  \     |  _  \  |  |  /  |          
                  \  \/   | |  | |   /    \    | | | |  |  | /  /          
                 / \  \   | |__| |  /  /\  \   | |_| |  |  |/  /          
                |  |  |   |  __  | /  /__\  \  |    /   |      \           
                |  |  |   | |  | | |   __   |  |    \   |  |\   \          
                \     /   | |  | | |  |  |  |  | |\  \  |  | \   \       
                 \___/    |_|  |_| |__|  |__|  |_| \__\ |__|  \__/        
                                                                              
                      - O R C A' S   B I G   F R I E N D -                    
                                      &                                       
                       - I N T E G R A L  F E E D E R -                       
                                                                              
 v1 FN, 2020, v2 2021                                                         
------------------------------------------------------------------------------


Reading SHARK input file /beegfs/scratch/ispackman/PFAS_EPR_calcs/benchmark/JChemEd_CF3_radical/CF3_radical_99.5_degrees_IN-PROGRESS/CF3_radical_99.5_degrees.SHARKINP.tmp ... ok
----------------------
SHARK INTEGRAL PACKAGE
----------------------

Number of atoms                             ...      4
Number of basis functions                   ...    157
Number of shells                            ...     55
Maximum angular momentum                    ...      3
Integral batch strategy                     ... SHARK/LIBINT Hybrid
RI-J (if used) integral strategy            ... SPLIT-RIJ (Revised 2003 algorithm where possible)
Printlevel                                  ...      1
Contraction scheme used                     ... SEGMENTED contraction
Coulomb Range Separation                    ... NOT USED
Exchange Range Separation                   ... Long Range
   Mu parameter                             ...  0.250000
   Scaling (regular/separated)              ...  0.195728  0.804272
Finite Nucleus Model                        ... NOT USED
Auxiliary Coulomb fitting basis             ... AVAILABLE
   # of basis functions in Aux-J            ...    196
   # of shells in Aux-J                     ...     60
   Maximum angular momentum in Aux-J        ...      4
Auxiliary J/K fitting basis                 ... NOT available
Auxiliary Correlation fitting basis         ... NOT available
Auxiliary 'external' fitting basis          ... NOT available
Integral threshold                          ...     2.500000e-11
Primitive cut-off                           ...     2.500000e-12
Primitive pair pre-selection threshold      ...     2.500000e-12

Calculating pre-screening integrals         ... done (  0.1 sec) Dimension = 55
Organizing shell pair data                  ... done (  0.0 sec)
Shell pair information
Total number of shell pairs                 ...      1540
Shell pairs after pre-screening             ...      1504
Total number of primitive shell pairs       ...      4274
Primitive shell pairs kept                  ...      3539
          la=0 lb=0:    282 shell pairs
          la=1 lb=0:    354 shell pairs
          la=1 lb=1:    120 shell pairs
          la=2 lb=0:    276 shell pairs
          la=2 lb=1:    180 shell pairs
          la=2 lb=2:     78 shell pairs
          la=3 lb=0:     96 shell pairs
          la=3 lb=1:     60 shell pairs
          la=3 lb=2:     48 shell pairs
          la=3 lb=3:     10 shell pairs

Calculating one electron integrals          ... done (  0.0 sec)
Calculating RI/J V-Matrix + Cholesky decomp.... done (  0.0 sec)
Calculating Nuclear repulsion               ... done (  0.0 sec) ENN=    126.492554555026 Eh

SHARK setup successfully completed in   0.3 seconds

Maximum memory used throughout the entire GTOINT-calculation: 15.2 MB


           ************************************************************
           *        Program running with 18 parallel MPI-processes    *
           *              working on a common directory               *
           ************************************************************

Diagonalization of the overlap matrix:
Smallest eigenvalue                        ... 4.073e-04
Time for diagonalization                   ...    0.004 sec
Threshold for overlap eigenvalues          ... 1.000e-08
Number of eigenvalues below threshold      ... 0
Time for construction of square roots      ...    0.012 sec
Total time needed                          ...    0.017 sec

-------------------
DFT GRID GENERATION
-------------------

General Integration Accuracy     IntAcc      ... 4.388
Radial Grid Type                 RadialGrid  ... OptM3 with GC (2021)
Angular Grid (max. ang.)         AngularGrid ... 4 (Lebedev-302)
Angular grid pruning method      GridPruning ... 4 (adaptive)
Weight generation scheme         WeightScheme... Becke
Basis function cutoff            BFCut       ... 1.0000e-11
Integration weight cutoff        WCut        ... 1.0000e-14
Angular grids for H and He will be reduced by one unit
Partially contracted basis set               ... off
Rotationally invariant grid construction     ... off

Total number of grid points                  ...    25783
Total number of batches                      ...      405
Average number of points per batch           ...       63
Average number of grid points per atom       ...     6446
Time for grid setup =    0.152 sec

--------------------
COSX GRID GENERATION
--------------------

GRIDX 1
-------
General Integration Accuracy     IntAcc      ... 3.816
Radial Grid Type                 RadialGrid  ... OptM3 with GC (2021)
Angular Grid (max. ang.)         AngularGrid ... 1 (Lebedev-50)
Angular grid pruning method      GridPruning ... 4 (adaptive)
Weight generation scheme         WeightScheme... Becke
Basis function cutoff            BFCut       ... 1.0000e-11
Integration weight cutoff        WCut        ... 1.0000e-14
Angular grids for H and He will be reduced by one unit
Partially contracted basis set               ... on
Rotationally invariant grid construction     ... off

Total number of grid points                  ...     3274
Total number of batches                      ...       53
Average number of points per batch           ...       61
Average number of grid points per atom       ...      818
UseSFitting                                  ... on

GRIDX 2
-------
General Integration Accuracy     IntAcc      ... 4.020
Radial Grid Type                 RadialGrid  ... OptM3 with GC (2021)
Angular Grid (max. ang.)         AngularGrid ... 2 (Lebedev-110)
Angular grid pruning method      GridPruning ... 4 (adaptive)
Weight generation scheme         WeightScheme... Becke
Basis function cutoff            BFCut       ... 1.0000e-11
Integration weight cutoff        WCut        ... 1.0000e-14
Angular grids for H and He will be reduced by one unit
Partially contracted basis set               ... on
Rotationally invariant grid construction     ... off

Total number of grid points                  ...     9124
Total number of batches                      ...      144
Average number of points per batch           ...       63
Average number of grid points per atom       ...     2281
UseSFitting                                  ... on

GRIDX 3
-------
General Integration Accuracy     IntAcc      ... 4.338
Radial Grid Type                 RadialGrid  ... OptM3 with GC (2021)
Angular Grid (max. ang.)         AngularGrid ... 3 (Lebedev-194)
Angular grid pruning method      GridPruning ... 4 (adaptive)
Weight generation scheme         WeightScheme... Becke
Basis function cutoff            BFCut       ... 1.0000e-11
Integration weight cutoff        WCut        ... 1.0000e-14
Angular grids for H and He will be reduced by one unit
Partially contracted basis set               ... on
Rotationally invariant grid construction     ... off

Total number of grid points                  ...    19685
Total number of batches                      ...      309
Average number of points per batch           ...       63
Average number of grid points per atom       ...     4921
UseSFitting                                  ... on

Time for X-Grid setup             =    0.377 sec

--------------
SCF ITERATIONS
[...]
  VA   - Mayer's total valence
  BVA  - Mayer's bonded valence
  FA   - Mayer's free valence

  ATOM       NA         ZA         QA         VA         BVA        FA
  0 C      5.4617     6.0000     0.5383     3.7831     3.1769     0.6062
  1 F      9.1794     9.0000    -0.1794     1.0375     1.0324     0.0050
  2 F      9.1795     9.0000    -0.1795     1.0372     1.0322     0.0050
  3 F      9.1795     9.0000    -0.1795     1.0372     1.0322     0.0050

  Mayer bond orders larger than 0.100000
B(  0-C ,  1-F ) :   1.0591 B(  0-C ,  2-F ) :   1.0589 B(  0-C ,  3-F ) :   1.0589 


-------
TIMINGS
-------

Total SCF time: 0 days 0 hours 0 min 3 sec 

Total time                  ....       3.599 sec
Sum of individual times     ....       2.865 sec  ( 79.6%)

Fock matrix formation       ....       2.013 sec  ( 55.9%)
  Split-RI-J                ....       0.319 sec  ( 15.8% of F)
  Chain of spheres X        ....       0.857 sec  ( 42.6% of F)
  XC integration            ....       0.388 sec  ( 19.3% of F)
    Basis function eval.    ....       0.017 sec  (  4.3% of XC)
    Density eval.           ....       0.023 sec  (  5.9% of XC)
    XC-Functional eval.     ....       0.009 sec  (  2.3% of XC)
    XC-Potential eval.      ....       0.034 sec  (  8.7% of XC)
Diagonalization             ....       0.079 sec  (  2.2%)
Density matrix formation    ....       0.007 sec  (  0.2%)
Population analysis         ....       0.219 sec  (  6.1%)
Initial guess               ....       0.022 sec  (  0.6%)
Orbital Transformation      ....       0.000 sec  (  0.0%)
Orbital Orthonormalization  ....       0.012 sec  (  0.3%)
DIIS solution               ....       0.018 sec  (  0.5%)
Grid generation             ....       0.507 sec  ( 14.1%)

Maximum memory used throughout the entire SCF-calculation: 63.4 MB


-------------------------------------------------------------------------------
                          DFT DISPERSION CORRECTION                            
                                                                               
                              DFTD3 V3.1  Rev 1                                
                              USING zero damping                               
-------------------------------------------------------------------------------
The omegaB97X-D3 functional is recognized. Fit by Chai et al.
Active option DFTDOPT                   ...         3   

molecular C6(AA) [au] = 165.623683 


            DFT-D V3
 parameters
 s6 scaling factor         :     1.0000 
 rs6 scaling factor        :     1.2810 
 s8 scaling factor         :     1.0000 
 rs8 scaling factor        :     1.0940 
 Damping factor alpha6     :    14.0000 
 Damping factor alpha8     :    16.0000 
 ad hoc parameters k1-k3   :    16.0000     1.3333    -4.0000 

 Edisp/kcal,au: -0.034440087346  -0.000054883767 
 E6   /kcal   :  -0.004373154 
 E8   /kcal   :  -0.030066933 
 % E8         :  87.302140607 

-------------------------   ----------------
Dispersion correction           -0.000054884
-------------------------   ----------------


-------------------------   --------------------
FINAL SINGLE POINT ENERGY      -337.596676179467
-------------------------   --------------------

                                *** OPTIMIZATION RUN DONE ***

                            ***************************************
                            *     ORCA property calculations      *
                            ***************************************

                                    ---------------------
                                    Active property flags
                                    ---------------------
   (+) Dipole Moment


------------------------------------------------------------------------------
                       ORCA ELECTRIC PROPERTIES CALCULATION
------------------------------------------------------------------------------

Dipole Moment Calculation                       ... on
Quadrupole Moment Calculation                   ... off
Polarizability Calculation                      ... off
GBWName                                         ... /beegfs/scratch/ispackman/PFAS_EPR_calcs/benchmark/JChemEd_CF3_radical/CF3_radical_99.5_degrees_IN-PROGRESS/CF3_radical_99.5_degrees.gbw
Electron density                                ... /beegfs/scratch/ispackman/PFAS_EPR_calcs/benchmark/JChemEd_CF3_radical/CF3_radical_99.5_degrees_IN-PROGRESS/CF3_radical_99.5_degrees.scfp
The origin for moment calculation is the CENTER OF MASS  = ( 0.000005, -0.000000 -0.972159)

-------------
DIPOLE MOMENT
-------------
                                X             Y             Z
Electronic contribution:     -0.00019       0.00000       0.12315
Nuclear contribution   :     -0.00002       0.00000       0.30832
                        -----------------------------------------
Total Dipole Moment    :     -0.00021       0.00000       0.43147
                        -----------------------------------------
Magnitude (a.u.)       :      0.43147
Magnitude (Debye)      :      1.09671



--------------------
Rotational spectrum 
--------------------
 
Rotational constants in cm-1:     0.380701     0.380673     0.209394 
Rotational constants in MHz : 11413.137732 11412.292674  6277.477099 

 Dipole components along the rotational axes: 
x,y,z [a.u.] :     0.000211     0.000001     0.431472 
x,y,z [Debye]:     0.000537     0.000002     1.096714 

 


           ************************************************************
           *        Program running with 18 parallel MPI-processes    *
           *              working on a common directory               *
           ************************************************************

-------------------------------------------------------------------------------
                               ORCA SCF HESSIAN
-------------------------------------------------------------------------------

                   --------- SHARK INITIALIZATION DONE ---------

Hessian of the Kohn-Sham DFT energy:
Kohn-Sham wavefunction type                      ... UKS
Hartree-Fock exchange scaling                    ...    0.196
Number of operators                              ...    2
Number of atoms                                  ...    4
Basis set dimensions                             ...  157
Integral neglect threshold                       ... 2.5e-11
Integral primitive cutoff                        ... 2.5e-12

Setting up DFT Hessian calculations              ... 

HESS GRID
---------

General Integration Accuracy     IntAcc      ... 4.629
Radial Grid Type                 RadialGrid  ... OptM3 with GC (2021)
Angular Grid (max. ang.)         AngularGrid ... 5 (Lebedev-434)
Angular grid pruning method      GridPruning ... 4 (adaptive)
Weight generation scheme         WeightScheme... Becke
Basis function cutoff            BFCut       ... 1.0000e-11
Integration weight cutoff        WCut        ... 1.0000e-14
Angular grids for H and He will be reduced by one unit
Partially contracted basis set               ... off
Rotationally invariant grid construction     ... off

Total number of grid points                  ...    39975
Total number of batches                      ...      626
Average number of points per batch           ...       63
Average number of grid points per atom       ...     9994

Building densities                               ... done   (      0.0 sec)
Calculating rho(r) on the grid                   ... done   (      0.1 sec)
Building xc-kernel on the grid                   ... done   (      0.1 sec)
                                                     done   (      0.6 sec)

Nuclear repulsion Hessian  (SHARK)               ... done   (      0.0 sec)

----------------------------------------------
Forming right-hand sides of CP-SCF equations     ...
----------------------------------------------
One electron integral derivatives  (SHARK)       ... done   (      0.0 sec)
Transforming the overlap derivative matrices     ... done   (      0.0 sec)
Making the Q(x) pseudodensities                  ... done   (      0.0 sec)
Adding the E*S(x)*S(y) terms to the Hessian      ... done   (      0.0 sec)
Calculating energy weighted overlap derivatives  ... done   (      0.0 sec)
Two electron integral derivatives (SHARK-RI)     ... done   (      2.5 sec)
Exchange-correlation integral derivatives        ... done   (      2.3 sec)
tr(F(y)Q(x)) contribution to the Hessian         ... done   (      0.0 sec)
Response fock operator R(S(x)) (SHARK-RIJCOSX)   ... done   (      0.9 sec)
XC Response fock operator R(S(x))                ... done   (      0.4 sec)
tr(F(y)S(x)) contribution to the Hessian         ... done   (      0.0 sec)
Transforming and finalizing RHSs                 ... done   (      0.0 sec)

----------------------------------------------
Solving the CP-SCF equations (RIJCOSX)           ...
----------------------------------------------
     CP-SCF ITERATION   0:   1.6020e-01 (   0.4 sec   0/ 12 done)
     CP-SCF ITERATION   1:   5.3909e-02 (   0.5 sec   0/ 12 done)
     CP-SCF ITERATION   2:   2.0401e-02 (   0.4 sec   0/ 12 done)
     CP-SCF ITERATION   3:   5.9680e-03 (   0.5 sec   0/ 12 done)
     CP-SCF ITERATION   4:   2.2172e-03 (   0.5 sec   0/ 12 done)
     CP-SCF ITERATION   5:   9.2413e-04 (   0.4 sec   1/ 12 done)
     CP-SCF ITERATION   6:   2.8376e-04 (   0.4 sec   2/ 12 done)
     CP-SCF ITERATION   7:   6.8065e-05 (   0.4 sec  12/ 12 done)
                    *** THE CP-SCF HAS CONVERGED ***

                                                 ... done   (      3.9 sec)
Forming perturbed density Hessian contributions  ... done   (      0.0 sec)
2nd integral derivative contribs (SHARK-RI)      ... done   (      6.7 sec)
Exchange-correlation Hessian                     ... done   (      0.9 sec)
Dispersion correction in the Hessian             ... done   (      0.1 sec)
Dipole derivatives                               ... (center of mass:  0.000005, -0.000000 -0.972159)done   (      0.1 sec)

Total SCF Hessian time: 0 days 0 hours 0 min 19 sec 

Writing the Hessian file to the disk             ... done


Maximum memory used throughout the entire SCFHESS-calculation: 145.1 MB

-----------------------
VIBRATIONAL FREQUENCIES
-----------------------

Scaling factor for frequencies =  1.000000000  (already applied!)

   0:         0.00 cm**-1
   1:         0.00 cm**-1
   2:         0.00 cm**-1
   3:         0.00 cm**-1
   4:         0.00 cm**-1
   5:         0.00 cm**-1
   6:       582.77 cm**-1
   7:       583.81 cm**-1
   8:       782.65 cm**-1
   9:      1057.97 cm**-1
  10:      1058.22 cm**-1
  11:      1091.10 cm**-1


------------
NORMAL MODES
------------

These modes are the Cartesian displacements weighted by the diagonal matrix
M(i,i)=1/sqrt(m[i]) where m[i] is the mass of the displaced atom
Thus, these vectors are normalized but *not* orthogonal

                  0          1          2          3          4          5    
      0       0.000000   0.000000   0.000000   0.000000   0.000000   0.000000
      1       0.000000   0.000000   0.000000   0.000000   0.000000   0.000000
      2       0.000000   0.000000   0.000000   0.000000   0.000000   0.000000
      3       0.000000   0.000000   0.000000   0.000000   0.000000   0.000000
      4       0.000000   0.000000   0.000000   0.000000   0.000000   0.000000
      5       0.000000   0.000000   0.000000   0.000000   0.000000   0.000000
      6       0.000000   0.000000   0.000000   0.000000   0.000000   0.000000
      7       0.000000   0.000000   0.000000   0.000000   0.000000   0.000000
      8       0.000000   0.000000   0.000000   0.000000   0.000000   0.000000
      9       0.000000   0.000000   0.000000   0.000000   0.000000   0.000000
     10       0.000000   0.000000   0.000000   0.000000   0.000000   0.000000
     11       0.000000   0.000000   0.000000   0.000000   0.000000   0.000000
                  6          7          8          9         10         11    
      0      -0.299214   0.000002   0.000227  -0.883497   0.000931  -0.007121
      1      -0.000003  -0.298521   0.000000  -0.000931  -0.883649   0.000002
      2      -0.001141   0.000000   0.573459   0.006838  -0.000009  -0.833191
      3      -0.481352   0.000004  -0.458325   0.324058  -0.000342  -0.263941
      4       0.000005   0.608237  -0.000000   0.000053   0.050444  -0.000000
      5      -0.067375   0.000000  -0.120790  -0.201104   0.000212   0.173971
      6       0.335265   0.472286   0.229091   0.117131  -0.117706   0.134222
      7       0.472815  -0.209756  -0.395160  -0.116069   0.254232  -0.231894
      8       0.034048  -0.058431  -0.120882   0.098208  -0.173052   0.176397
      9       0.335258  -0.472291   0.229091   0.117379   0.117459   0.134221
     10      -0.472818  -0.209748   0.395159   0.116605   0.253989   0.231893
     11       0.034049   0.058430  -0.120882   0.098573   0.172845   0.176396


-----------
IR SPECTRUM
-----------

 Mode   freq       eps      Int      T**2         TX        TY        TZ
       cm**-1   L/(mol*cm) km/mol    a.u.
----------------------------------------------------------------------------
  6:    582.77   0.000296    1.50  0.000159  (-0.012599 -0.000000 -0.000080)
  7:    583.81   0.000291    1.47  0.000156  ( 0.000000 -0.012473  0.000000)
  8:    782.65   0.002686   13.58  0.001071  ( 0.000097  0.000000  0.032728)
  9:   1057.97   0.060178  304.11  0.017750  (-0.133230 -0.000140  0.000424)
 10:   1058.22   0.060142  303.93  0.017736  ( 0.000140 -0.133175 -0.000001)
 11:   1091.10   0.009197   46.48  0.002630  (-0.001017  0.000000 -0.051276)

* The epsilon (eps) is given for a Dirac delta lineshape.
** The dipole moment derivative (T) already includes vibrational overlap.

The first frequency considered to be a vibration is 6
The total number of vibrations considered is 6


--------------------------
THERMOCHEMISTRY AT 298.15K
--------------------------

Temperature         ... 298.15 K
Pressure            ... 1.00 atm
Total Mass          ... 69.00 AMU

Throughout the following assumptions are being made:
  (1) The electronic state is orbitally nondegenerate
      but the spin degeneracy is treated
  (2) There are no thermally accessible electronically excited states
  (3) Hindered rotations indicated by low frequency modes are not
      treated as such but are treated as vibrations and this may
      cause some error
  (4) All equations used are the standard statistical mechanics
      equations for an ideal gas
  (5) All vibrations are strictly harmonic

freq.     582.77  E(vib)   ...       0.11 
freq.     583.81  E(vib)   ...       0.11 
freq.     782.65  E(vib)   ...       0.05 
freq.    1057.97  E(vib)   ...       0.02 
freq.    1058.22  E(vib)   ...       0.02 
freq.    1091.10  E(vib)   ...       0.02 

------------
INNER ENERGY
------------

The inner energy is: U= E(el) + E(ZPE) + E(vib) + E(rot) + E(trans)
    E(el)   - is the total energy from the electronic structure calculation
              = E(kin-el) + E(nuc-el) + E(el-el) + E(nuc-nuc)
    E(ZPE)  - the the zero temperature vibrational energy from the frequency calculation
    E(vib)  - the the finite temperature correction to E(ZPE) due to population
              of excited vibrational states
    E(rot)  - is the rotational thermal energy
    E(trans)- is the translational thermal energy

Summary of contributions to the inner energy U:
Electronic energy                ...   -337.59667618 Eh
Zero point energy                ...      0.01174740 Eh       7.37 kcal/mol
Thermal vibrational correction   ...      0.00050700 Eh       0.32 kcal/mol
Thermal rotational correction    ...      0.00141627 Eh       0.89 kcal/mol
Thermal translational correction ...      0.00141627 Eh       0.89 kcal/mol
-----------------------------------------------------------------------
Total thermal energy                   -337.58158923 Eh


Summary of corrections to the electronic energy:
(perhaps to be used in another calculation)
Total thermal correction                  0.00333955 Eh       2.10 kcal/mol
Non-thermal (ZPE) correction              0.01174740 Eh       7.37 kcal/mol
-----------------------------------------------------------------------
Total correction                          0.01508695 Eh       9.47 kcal/mol


--------
ENTHALPY
--------

The enthalpy is H = U + kB*T
                kB is Boltzmann's constant
Total free energy                 ...   -337.58158923 Eh 
Thermal Enthalpy correction       ...      0.00094421 Eh       0.59 kcal/mol
-----------------------------------------------------------------------
Total Enthalpy                    ...   -337.58064502 Eh


Note: Rotational entropy computed according to Herzberg 
Infrared and Raman Spectra, Chapter V,1, Van Nostrand Reinhold, 1945 
Point Group:  C3v, Symmetry Number:   3  
Rotational constants in cm-1:     0.380701     0.380673     0.209394 

Vibrational entropy computed according to the QRRHO of S. Grimme
Chem.Eur.J. 2012 18 9955


-------
ENTROPY
-------

The entropy contributions are T*S = T*(S(el)+S(vib)+S(rot)+S(trans))
     S(el)   - electronic entropy
     S(vib)  - vibrational entropy
     S(rot)  - rotational entropy
     S(trans)- translational entropy
The entropies will be listed as multiplied by the temperature to get
units of energy

Electronic entropy                ...      0.00065446 Eh      0.41 kcal/mol
Vibrational entropy               ...      0.00066256 Eh      0.42 kcal/mol
Rotational entropy                ...      0.01012352 Eh      6.35 kcal/mol
Translational entropy             ...      0.01834582 Eh     11.51 kcal/mol
-----------------------------------------------------------------------
Final entropy term                ...      0.02978635 Eh     18.69 kcal/mol

In case the symmetry of your molecule has not been determined correctly
or in case you have a reason to use a different symmetry number we print 
out the resulting rotational entropy values for sn=1,12 :
 --------------------------------------------------------
|  sn= 1 | S(rot)=       0.01116081 Eh      7.00 kcal/mol|
|  sn= 2 | S(rot)=       0.01050635 Eh      6.59 kcal/mol|
|  sn= 3 | S(rot)=       0.01012352 Eh      6.35 kcal/mol|
|  sn= 4 | S(rot)=       0.00985190 Eh      6.18 kcal/mol|
|  sn= 5 | S(rot)=       0.00964121 Eh      6.05 kcal/mol|
|  sn= 6 | S(rot)=       0.00946906 Eh      5.94 kcal/mol|
|  sn= 7 | S(rot)=       0.00932352 Eh      5.85 kcal/mol|
|  sn= 8 | S(rot)=       0.00919744 Eh      5.77 kcal/mol|
|  sn= 9 | S(rot)=       0.00908623 Eh      5.70 kcal/mol|
|  sn=10 | S(rot)=       0.00898675 Eh      5.64 kcal/mol|
|  sn=11 | S(rot)=       0.00889676 Eh      5.58 kcal/mol|
|  sn=12 | S(rot)=       0.00881461 Eh      5.53 kcal/mol|
 --------------------------------------------------------


-------------------
GIBBS FREE ENERGY
-------------------

The Gibbs free energy is G = H - T*S

Total enthalpy                    ...   -337.58064502 Eh 
Total entropy correction          ...     -0.02978635 Eh    -18.69 kcal/mol
-----------------------------------------------------------------------
Final Gibbs free energy         ...   -337.61043137 Eh

For completeness - the Gibbs free energy minus the electronic energy
G-E(el)                           ...     -0.01375519 Eh     -8.63 kcal/mol


Timings for individual modules:

Sum of individual times         ...      101.224 sec (=   1.687 min)
GTO integral calculation        ...       14.207 sec (=   0.237 min)  14.0 %
SCF iterations                  ...       50.108 sec (=   0.835 min)  49.5 %
SCF Gradient evaluation         ...       14.546 sec (=   0.242 min)  14.4 %
Geometry relaxation             ...        0.216 sec (=   0.004 min)   0.2 %
Analytical frequency calculation...       22.147 sec (=   0.369 min)  21.9 %
                             ****ORCA TERMINATED NORMALLY****
TOTAL RUN TIME: 0 days 0 hours 1 minutes 55 seconds 376 msec

slurmID:    32260090
totalRuntime[s]:    115.413394218
