
                                 *****************
                                 * O   R   C   A *
                                 *****************

                                            #,                                       
                                            ###                                      
                                            ####                                     
                                            #####                                    
                                            ######                                   
                                           ########,                                 
                                     ,,################,,,,,                         
                               ,,#################################,,                 
                          ,,##########################################,,             
                       ,#########################################, ''#####,          
                    ,#############################################,,   '####,        
                  ,##################################################,,,,####,       
                ,###########''''           ''''###############################       
              ,#####''   ,,,,##########,,,,          '''####'''          '####       
            ,##' ,,,,###########################,,,                        '##       
           ' ,,###''''                  '''############,,,                           
         ,,##''                                '''############,,,,        ,,,,,,###''
      ,#''                                            '''#######################'''  
     '                                                          ''''####''''         
             ,#######,   #######,   ,#######,      ##                                
            ,#'     '#,  ##    ##  ,#'     '#,    #''#        ######   ,####,        
            ##       ##  ##   ,#'  ##            #'  '#       #        #'  '#        
            ##       ##  #######   ##           ,######,      #####,   #    #        
            '#,     ,#'  ##    ##  '#,     ,#' ,#      #,         ##   #,  ,#        
             '#######'   ##     ##  '#######'  #'      '#     #####' # '####'        



                  #######################################################
                  #                        -***-                        #
                  #          Department of theory and spectroscopy      #
                  #    Directorship and core code : Frank Neese         #
                  #        Max Planck Institute fuer Kohlenforschung    #
                  #                Kaiser Wilhelm Platz 1               #
                  #                 D-45470 Muelheim/Ruhr               #
                  #                      Germany                        #
                  #                                                     #
                  #                  All rights reserved                #
                  #                        -***-                        #
                  #######################################################


                         Program Version 5.0.4 -  RELEASE  -


 With contributions from (in alphabetic order):
   Daniel Aravena         : Magnetic Suceptibility
   Michael Atanasov       : Ab Initio Ligand Field Theory (pilot matlab implementation)
   Alexander A. Auer      : GIAO ZORA, VPT2 properties, NMR spectrum
   Ute Becker             : Parallelization
   Giovanni Bistoni       : ED, misc. LED, open-shell LED, HFLD
   Martin Brehm           : Molecular dynamics
   Dmytro Bykov           : SCF Hessian
   Vijay G. Chilkuri      : MRCI spin determinant printing, contributions to CSF-ICE
   Dipayan Datta          : RHF DLPNO-CCSD density
   Achintya Kumar Dutta   : EOM-CC, STEOM-CC
   Dmitry Ganyushin       : Spin-Orbit,Spin-Spin,Magnetic field MRCI
   Miquel Garcia          : C-PCM and meta-GGA Hessian, CC/C-PCM, Gaussian charge scheme
   Yang Guo               : DLPNO-NEVPT2, F12-NEVPT2, CIM, IAO-localization
   Andreas Hansen         : Spin unrestricted coupled pair/coupled cluster methods
   Benjamin Helmich-Paris : MC-RPA, TRAH-SCF, COSX integrals
   Lee Huntington         : MR-EOM, pCC
   Robert Izsak           : Overlap fitted RIJCOSX, COSX-SCS-MP3, EOM
   Marcus Kettner         : VPT2
   Christian Kollmar      : KDIIS, OOCD, Brueckner-CCSD(T), CCSD density, CASPT2, CASPT2-K
   Simone Kossmann        : Meta GGA functionals, TD-DFT gradient, OOMP2, MP2 Hessian
   Martin Krupicka        : Initial AUTO-CI
   Lucas Lang             : DCDCAS
   Marvin Lechner         : AUTO-CI (C++ implementation), FIC-MRCC
   Dagmar Lenk            : GEPOL surface, SMD
   Dimitrios Liakos       : Extrapolation schemes; Compound Job, initial MDCI parallelization
   Dimitrios Manganas     : Further ROCIS development; embedding schemes
   Dimitrios Pantazis     : SARC Basis sets
   Anastasios Papadopoulos: AUTO-CI, single reference methods and gradients
   Taras Petrenko         : DFT Hessian,TD-DFT gradient, ASA, ECA, R-Raman, ABS, FL, XAS/XES, NRVS
   Peter Pinski           : DLPNO-MP2, DLPNO-MP2 Gradient
   Christoph Reimann      : Effective Core Potentials
   Marius Retegan         : Local ZFS, SOC
   Christoph Riplinger    : Optimizer, TS searches, QM/MM, DLPNO-CCSD(T), (RO)-DLPNO pert. Triples
   Tobias Risthaus        : Range-separated hybrids, TD-DFT gradient, RPA, STAB
   Michael Roemelt        : Original ROCIS implementation
   Masaaki Saitow         : Open-shell DLPNO-CCSD energy and density
   Barbara Sandhoefer     : DKH picture change effects
   Avijit Sen             : IP-ROCIS
   Kantharuban Sivalingam : CASSCF convergence, NEVPT2, FIC-MRCI
   Bernardo de Souza      : ESD, SOC TD-DFT
   Georgi Stoychev        : AutoAux, RI-MP2 NMR, DLPNO-MP2 response
   Willem Van den Heuvel  : Paramagnetic NMR
   Boris Wezisla          : Elementary symmetry handling
   Frank Wennmohs         : Technical directorship


 We gratefully acknowledge several colleagues who have allowed us to
 interface, adapt or use parts of their codes:
   Stefan Grimme, W. Hujo, H. Kruse, P. Pracht,  : VdW corrections, initial TS optimization,
                  C. Bannwarth, S. Ehlert          DFT functionals, gCP, sTDA/sTD-DF
   Ed Valeev, F. Pavosevic, A. Kumar             : LibInt (2-el integral package), F12 methods
   Garnet Chan, S. Sharma, J. Yang, R. Olivares  : DMRG
   Ulf Ekstrom                                   : XCFun DFT Library
   Mihaly Kallay                                 : mrcc  (arbitrary order and MRCC methods)
   Jiri Pittner, Ondrej Demel                    : Mk-CCSD
   Frank Weinhold                                : gennbo (NPA and NBO analysis)
   Christopher J. Cramer and Donald G. Truhlar   : smd solvation model
   Lars Goerigk                                  : TD-DFT with DH, B97 family of functionals
   V. Asgeirsson, H. Jonsson                     : NEB implementation
   FAccTs GmbH                                   : IRC, NEB, NEB-TS, DLPNO-Multilevel, CI-OPT
                                                   MM, QMMM, 2- and 3-layer-ONIOM, Crystal-QMMM,
                                                   LR-CPCM, SF, NACMEs, symmetry and pop. for TD-DFT,
                                                   nearIR, NL-DFT gradient (VV10), updates on ESD,
                                                   ML-optimized integration grids
   S Lehtola, MJT Oliveira, MAL Marques          : LibXC Library
   Liviu Ungur et al                             : ANISO software


 Your calculation uses the libint2 library for the computation of 2-el integrals
 For citations please refer to: http://libint.valeyev.net

 Your ORCA version has been built with support for libXC version: 5.1.0
 For citations please refer to: https://tddft.org/programs/libxc/

 This ORCA versions uses:
   CBLAS   interface :  Fast vector & matrix operations
   LAPACKE interface :  Fast linear algebra routines
   SCALAPACK package :  Parallel linear algebra routines
   Shared memory     :  Shared parallel matrices
   BLAS/LAPACK       :  OpenBLAS 0.3.15  USE64BITINT DYNAMIC_ARCH NO_AFFINITY SkylakeX SINGLE_THREADED
        Core in use  :  SkylakeX
   Copyright (c) 2011-2014, The OpenBLAS Project


Your calculation utilizes the atom-pairwise dispersion correction
with the zero-damping scheme (D30)
Cite in your paper:
S.Grimme, J.Antony, S.Ehrlich and H.Krieg, J.Chem.Phys., 132, (2010), 154104 
   

XCFun DFT library Copyright 2009-2010 Ulf Ekstrom and contributors.
See http://admol.org/xcfun for more information.
This is free software; see the source code for copying conditions.
There is ABSOLUTELY NO WARRANTY; not even for MERCHANTABILITY or FITNESS FOR A PARTICULAR PURPOSE.
For details see the documentation.
Scientific users of this library should cite U. Ekstrom, L. Visscher, R. Bast, A. J. Thorvaldsen and K. Ruud;
J.Chem.Theor.Comp. 2010, DOI: 10.1021/ct100117s
XCFun Version 0.99 

================================================================================

----- Orbital basis set information -----
Your calculation utilizes the basis: def2-TZVPD
   F. Weigend and R. Ahlrichs, Phys. Chem. Chem. Phys. 7, 3297 (2005).
   D. Rappoport and F. Furche, J. Chem. Phys. 133 134105 (2010).

----- AuxJ basis set information -----
Your calculation utilizes the auxiliary basis: def2/J
   F. Weigend, Phys. Chem. Chem. Phys. 8, 1057 (2006).

================================================================================
                                        WARNINGS
                       Please study these warnings very carefully!
================================================================================


WARNING: Geometry Optimization
  ===> : Switching off AutoStart
         For restart on a previous wavefunction, please use MOREAD

INFO   : the flag for use of the SHARK integral package has been found!

================================================================================
                                       INPUT FILE
================================================================================
NAME = /beegfs/scratch/ispackman/PFAS_EPR_calcs/benchmark/JChemEd_CF3_radical/CF3_radical_115.5_degrees_IN-PROGRESS/CF3_radical_115.5_degrees.inp
|  1> ! UKS TightSCF wB97x-D3 def2-TZVPD xyzfile opt freq
|  2> 
|  3> # CF3 radical 115.5 degrees fixed
|  4> 
|  5> %maxcore 1000
|  6> %pal
|  7> nprocs 18
|  8> end
|  9> 
| 10> %geom Constraints
| 11>         { A * 0 * C }
| 12>     end
| 13> end
| 14> * xyz 0 2
| 15> C 0.00 0.00 0.00
| 16> F 1.2841795179 0.0000000000 -0.2830335064
| 17> F -0.6420897590 1.1121320855 -0.2830335064
| 18> F -0.6420897590 -1.1121320855 -0.2830335064
| 19> **                         ****END OF INPUT****
================================================================================

                       *****************************
                       * Geometry Optimization Run *
                       *****************************

Geometry optimization settings:
Update method            Update   .... BFGS
Choice of coordinates    CoordSys .... Z-matrix Internals
Initial Hessian          InHess   .... Almoef's Model

Convergence Tolerances:
Energy Change            TolE     ....  5.0000e-06 Eh
Max. Gradient            TolMAXG  ....  3.0000e-04 Eh/bohr
RMS Gradient             TolRMSG  ....  1.0000e-04 Eh/bohr
Max. Displacement        TolMAXD  ....  4.0000e-03 bohr
RMS Displacement         TolRMSD  ....  2.0000e-03 bohr
Strict Convergence                ....  False
------------------------------------------------------------------------------
                        ORCA OPTIMIZATION COORDINATE SETUP
------------------------------------------------------------------------------

The optimization will be done in new redundant internal coordinates
Making redundant internal coordinates   ...  (new redundants) done
Evaluating the initial hessian          ...  (Almloef) done
Evaluating the coordinates              ...  done
Calculating the B-matrix                .... done
Calculating the G-matrix                .... done
Diagonalizing the G-matrix              .... done
Imposing constraints:
 Iter   0:  RMS(Cart)=    0.0000000000 RMS(Int)=    0.0000000000
CONVERGED
Will constrain atom 0 coordinate 1 
Will constrain atom 0 coordinate 2 
Will constrain atom 1 coordinate 2 
The first mode is                       ....    1
The number of degrees of freedom        ....    6
Storing new coordinates                 .... done

    -----------------------------------------------------------------
                    Redundant Internal Coordinates


    -----------------------------------------------------------------
         Definition                    Initial Value    Approx d2E/dq
    -----------------------------------------------------------------
      1. B(F   1,C   0)                  1.3150         0.684896   
      2. B(F   2,C   0)                  1.3150         0.684896   
      3. B(F   3,C   0)                  1.3150         0.684896   
      4. A(F   2,C   0,F   3)          115.5000         0.440101 C 
      5. A(F   1,C   0,F   2)          115.5000         0.440101 C 
      6. A(F   1,C   0,F   3)          115.5000         0.440101 C 
      7. I(F   1,F   3,F   2,C   0)     36.2172         0.039022   
    -----------------------------------------------------------------

Number of atoms                         .... 4
Number of degrees of freedom            .... 7

         *************************************************************
         *                GEOMETRY OPTIMIZATION CYCLE   1            *
         *************************************************************
---------------------------------
CARTESIAN COORDINATES (ANGSTROEM)
---------------------------------
  C      0.000000    0.000000    0.000000
  F      1.284180    0.000000   -0.283034
  F     -0.642090    1.112132   -0.283034
  F     -0.642090   -1.112132   -0.283034

----------------------------
CARTESIAN COORDINATES (A.U.)
----------------------------
  NO LB      ZA    FRAG     MASS         X           Y           Z
   0 C     6.0000    0    12.011    0.000000    0.000000    0.000000
   1 F     9.0000    0    18.998    2.426748    0.000000   -0.534856
   2 F     9.0000    0    18.998   -1.213374    2.101625   -0.534856
   3 F     9.0000    0    18.998   -1.213374   -2.101625   -0.534856

--------------------------------
INTERNAL COORDINATES (ANGSTROEM)
--------------------------------
 C      0   0   0     0.000000000000     0.00000000     0.00000000
 F      1   0   0     1.314999999977     0.00000000     0.00000000
 F      1   2   0     1.314999999983   115.50000000     0.00000000
 F      1   2   3     1.314999999983   115.50000000   139.10936410

---------------------------
INTERNAL COORDINATES (A.U.)
---------------------------
 C      0   0   0     0.000000000000     0.00000000     0.00000000
 F      1   0   0     2.484989866063     0.00000000     0.00000000
 F      1   2   0     2.484989866075   115.50000000     0.00000000
 F      1   2   3     2.484989866075   115.50000000   139.10936410

---------------------
BASIS SET INFORMATION
---------------------
There are 2 groups of distinct atoms

 Group   1 Type C   : 12s6p3d1f contracted to 6s3p3d1f pattern {621111/411/111/1}
 Group   2 Type F   : 12s7p3d1f contracted to 6s4p3d1f pattern {621111/4111/111/1}

Atom   0C    basis set group =>   1
Atom   1F    basis set group =>   2
Atom   2F    basis set group =>   2
Atom   3F    basis set group =>   2
---------------------------------
AUXILIARY/J BASIS SET INFORMATION
---------------------------------
There are 2 groups of distinct atoms

 Group   1 Type C   : 12s5p4d2f1g contracted to 6s4p3d1f1g pattern {711111/2111/211/2/1}
 Group   2 Type F   : 12s5p4d2f1g contracted to 6s4p3d1f1g pattern {711111/2111/211/2/1}

Atom   0C    basis set group =>   1
Atom   1F    basis set group =>   2
Atom   2F    basis set group =>   2
Atom   3F    basis set group =>   2


           ************************************************************
           *        Program running with 18 parallel MPI-processes    *
           *              working on a common directory               *
           ************************************************************
------------------------------------------------------------------------------
                           ORCA GTO INTEGRAL CALCULATION
                           -- RI-GTO INTEGRALS CHOSEN --
------------------------------------------------------------------------------
------------------------------------------------------------------------------
                   ___                                                        
                  /   \      - P O W E R E D   B Y -                         
                 /     \                                                     
                 |  |  |   _    _      __       _____    __    __             
                 |  |  |  | |  | |    /  \     |  _  \  |  |  /  |          
                  \  \/   | |  | |   /    \    | | | |  |  | /  /          
                 / \  \   | |__| |  /  /\  \   | |_| |  |  |/  /          
                |  |  |   |  __  | /  /__\  \  |    /   |      \           
                |  |  |   | |  | | |   __   |  |    \   |  |\   \          
                \     /   | |  | | |  |  |  |  | |\  \  |  | \   \       
                 \___/    |_|  |_| |__|  |__|  |_| \__\ |__|  \__/        
                                                                              
                      - O R C A' S   B I G   F R I E N D -                    
                                      &                                       
                       - I N T E G R A L  F E E D E R -                       
                                                                              
 v1 FN, 2020, v2 2021                                                         
------------------------------------------------------------------------------


Reading SHARK input file /beegfs/scratch/ispackman/PFAS_EPR_calcs/benchmark/JChemEd_CF3_radical/CF3_radical_115.5_degrees_IN-PROGRESS/CF3_radical_115.5_degrees.SHARKINP.tmp ... ok
----------------------
SHARK INTEGRAL PACKAGE
----------------------

Number of atoms                             ...      4
Number of basis functions                   ...    157
Number of shells                            ...     55
Maximum angular momentum                    ...      3
Integral batch strategy                     ... SHARK/LIBINT Hybrid
RI-J (if used) integral strategy            ... SPLIT-RIJ (Revised 2003 algorithm where possible)
Printlevel                                  ...      1
Contraction scheme used                     ... SEGMENTED contraction
Coulomb Range Separation                    ... NOT USED
Exchange Range Separation                   ... Long Range
   Mu parameter                             ...  0.250000
   Scaling (regular/separated)              ...  0.195728  0.804272
Finite Nucleus Model                        ... NOT USED
Auxiliary Coulomb fitting basis             ... AVAILABLE
   # of basis functions in Aux-J            ...    196
   # of shells in Aux-J                     ...     60
   Maximum angular momentum in Aux-J        ...      4
Auxiliary J/K fitting basis                 ... NOT available
Auxiliary Correlation fitting basis         ... NOT available
Auxiliary 'external' fitting basis          ... NOT available
Integral threshold                          ...     2.500000e-11
Primitive cut-off                           ...     2.500000e-12
Primitive pair pre-selection threshold      ...     2.500000e-12

Calculating pre-screening integrals         ... done (  0.0 sec) Dimension = 55
Organizing shell pair data                  ... done (  0.0 sec)
Shell pair information
Total number of shell pairs                 ...      1540
Shell pairs after pre-screening             ...      1492
Total number of primitive shell pairs       ...      4274
Primitive shell pairs kept                  ...      3461
          la=0 lb=0:    276 shell pairs
          la=1 lb=0:    354 shell pairs
          la=1 lb=1:    120 shell pairs
          la=2 lb=0:    276 shell pairs
          la=2 lb=1:    180 shell pairs
          la=2 lb=2:     78 shell pairs
          la=3 lb=0:     90 shell pairs
          la=3 lb=1:     60 shell pairs
          la=3 lb=2:     48 shell pairs
          la=3 lb=3:     10 shell pairs

Calculating one electron integrals          ... done (  0.0 sec)
Calculating RI/J V-Matrix + Cholesky decomp.... done (  0.0 sec)
Calculating Nuclear repulsion               ... done (  0.0 sec) ENN=    123.003817974176 Eh

SHARK setup successfully completed in   0.3 seconds

Maximum memory used throughout the entire GTOINT-calculation: 15.2 MB


           ************************************************************
           *        Program running with 18 parallel MPI-processes    *
           *              working on a common directory               *
           ************************************************************
-------------------------------------------------------------------------------
                                 ORCA SCF
-------------------------------------------------------------------------------

------------
SCF SETTINGS
------------
Hamiltonian:
 Density Functional     Method          .... DFT(GTOs)
 Exchange Functional    Exchange        .... WB97X-D3
 Correlation Functional Correlation     .... WB97X-D3
 Gradients option       PostSCFGGA      .... off
 Hybrid DFT is turned on
   Fraction HF Exchange ScalHFX         ....  0.195728
   Scaling of DF-GGA-X  ScalDFX         ....  0.000000
   Scaling of DF-GGA-C  ScalDFC         ....  1.000000
   Scaling of DF-LDA-C  ScalLDAC        ....  1.000000
   Perturbative correction              ....  0.000000
   Density functional embedding theory  .... OFF
 Long-range corrected/Screened/Range-Separated Hybrid DFT is turned on
   Amount of maximum screened exact exchange              ....  0.804272
   Range separation parameter mu (erf(mu*r12)/r12)        ....  0.250000
 RI-approximation to the Coulomb term is turned on
   Number of AuxJ basis functions       .... 196
   RIJ-COSX (HFX calculated with COS-X)).... on


General Settings:
 Integral files         IntName         .... /beegfs/scratch/ispackman/PFAS_EPR_calcs/benchmark/JChemEd_CF3_radical/CF3_radical_115.5_degrees_IN-PROGRESS/CF3_radical_115.5_degrees
 Hartree-Fock type      HFTyp           .... UHF
 Total Charge           Charge          ....    0
 Multiplicity           Mult            ....    2
 Number of Electrons    NEL             ....   33
 Basis Dimension        Dim             ....  157
 Nuclear Repulsion      ENuc            ....    123.0038179742 Eh

Convergence Acceleration:
 DIIS                   CNVDIIS         .... on
   Start iteration      DIISMaxIt       ....    12
   Startup error        DIISStart       ....  0.200000
   # of expansion vecs  DIISMaxEq       ....     5
   Bias factor          DIISBfac        ....   1.050
   Max. coefficient     DIISMaxC        ....  10.000
 Trust-Rad. Augm. Hess. CNVTRAH         .... auto
   Auto Start mean grad. ratio tolernc. ....  1.125000
   Auto Start start iteration           ....    20
   Auto Start num. interpolation iter.  ....    10
   Max. Number of Micro iterations      ....    16
   Max. Number of Macro iterations      .... Maxiter - #DIIS iter
   Number of Davidson start vectors     ....     2
   Converg. threshold I  (grad. norm)   ....   1.000e-05
   Converg. threshold II (energy diff.) ....   1.000e-08
   Grad. Scal. Fac. for Micro threshold ....   0.100
   Minimum threshold for Micro iter.    ....   0.010
   NR start threshold (gradient norm)   ....   0.001
   Initial trust radius                 ....   0.400
   Minimum AH scaling param. (alpha)    ....   1.000
   Maximum AH scaling param. (alpha)    .... 1000.000
   Orbital update algorithm             .... Taylor
   White noise on init. David. guess    .... on
   Maximum white noise                  ....   0.010
   Quad. conv. algorithm                .... NR
 SOSCF                  CNVSOSCF        .... off
 Level Shifting         CNVShift        .... on
   Level shift para.    LevelShift      ....    0.2500
   Turn off err/grad.   ShiftErr        ....    0.0010
 Zerner damping         CNVZerner       .... off
 Static damping         CNVDamp         .... on
   Fraction old density DampFac         ....    0.7000
   Max. Damping (<1)    DampMax         ....    0.9800
   Min. Damping (>=0)   DampMin         ....    0.0000
   Turn off err/grad.   DampErr         ....    0.1000
 Fernandez-Rico         CNVRico         .... off

SCF Procedure:
 Maximum # iterations   MaxIter         ....   125
 SCF integral mode      SCFMode         .... Direct
   Integral package                     .... SHARK and LIBINT hybrid scheme
 Reset frequency        DirectResetFreq ....    20
 Integral Threshold     Thresh          ....  2.500e-11 Eh
 Primitive CutOff       TCut            ....  2.500e-12 Eh

Convergence Tolerance:
 Convergence Check Mode ConvCheckMode   .... Total+1el-Energy
 Convergence forced     ConvForced      .... 0
 Energy Change          TolE            ....  1.000e-08 Eh
 1-El. energy change                    ....  1.000e-05 Eh
 DIIS Error             TolErr          ....  5.000e-07


Diagonalization of the overlap matrix:
Smallest eigenvalue                        ... 2.892e-04
Time for diagonalization                   ...    0.007 sec
Threshold for overlap eigenvalues          ... 1.000e-08
Number of eigenvalues below threshold      ... 0
Time for construction of square roots      ...    0.011 sec
Total time needed                          ...    0.019 sec

Time for model grid setup =    0.053 sec

------------------------------
INITIAL GUESS: MODEL POTENTIAL
------------------------------
Loading Hartree-Fock densities                     ... done
Calculating cut-offs                               ... done
Initializing the effective Hamiltonian             ... done
Setting up the integral package (SHARK)            ... done
Starting the Coulomb interaction                   ... done (   0.1 sec)
Reading the grid                                   ... done
Mapping shells                                     ... done
Starting the XC term evaluation                    ... done (   0.0 sec)
  promolecular density results
     # of electrons  =     32.999470160
     EX              =    -35.094245205
     EC              =     -1.143899598
     EX+EC           =    -36.238144802
Transforming the Hamiltonian                       ... done (   0.0 sec)
Diagonalizing the Hamiltonian                      ... done (   0.0 sec)
Back transforming the eigenvectors                 ... done (   0.0 sec)
Now organizing SCF variables                       ... done
                      ------------------
                      INITIAL GUESS DONE (   0.2 sec)
                      ------------------
-------------------
DFT GRID GENERATION
-------------------

General Integration Accuracy     IntAcc      ... 4.388
Radial Grid Type                 RadialGrid  ... OptM3 with GC (2021)
Angular Grid (max. ang.)         AngularGrid ... 4 (Lebedev-302)
Angular grid pruning method      GridPruning ... 4 (adaptive)
Weight generation scheme         WeightScheme... Becke
Basis function cutoff            BFCut       ... 1.0000e-11
Integration weight cutoff        WCut        ... 1.0000e-14
Angular grids for H and He will be reduced by one unit
Partially contracted basis set               ... off
Rotationally invariant grid construction     ... off

Total number of grid points                  ...    25768
Total number of batches                      ...      406
Average number of points per batch           ...       63
Average number of grid points per atom       ...     6442
Time for grid setup =    0.145 sec

--------------------
COSX GRID GENERATION
--------------------

GRIDX 1
-------
General Integration Accuracy     IntAcc      ... 3.816
Radial Grid Type                 RadialGrid  ... OptM3 with GC (2021)
Angular Grid (max. ang.)         AngularGrid ... 1 (Lebedev-50)
Angular grid pruning method      GridPruning ... 4 (adaptive)
Weight generation scheme         WeightScheme... Becke
Basis function cutoff            BFCut       ... 1.0000e-11
Integration weight cutoff        WCut        ... 1.0000e-14
Angular grids for H and He will be reduced by one unit
Partially contracted basis set               ... on
Rotationally invariant grid construction     ... off

Total number of grid points                  ...     3271
Total number of batches                      ...       52
Average number of points per batch           ...       62
Average number of grid points per atom       ...      818
UseSFitting                                  ... on

GRIDX 2
-------
General Integration Accuracy     IntAcc      ... 4.020
Radial Grid Type                 RadialGrid  ... OptM3 with GC (2021)
Angular Grid (max. ang.)         AngularGrid ... 2 (Lebedev-110)
Angular grid pruning method      GridPruning ... 4 (adaptive)
Weight generation scheme         WeightScheme... Becke
Basis function cutoff            BFCut       ... 1.0000e-11
Integration weight cutoff        WCut        ... 1.0000e-14
Angular grids for H and He will be reduced by one unit
Partially contracted basis set               ... on
Rotationally invariant grid construction     ... off

Total number of grid points                  ...     9149
Total number of batches                      ...      145
Average number of points per batch           ...       63
Average number of grid points per atom       ...     2287
UseSFitting                                  ... on

GRIDX 3
-------
General Integration Accuracy     IntAcc      ... 4.338
Radial Grid Type                 RadialGrid  ... OptM3 with GC (2021)
Angular Grid (max. ang.)         AngularGrid ... 3 (Lebedev-194)
Angular grid pruning method      GridPruning ... 4 (adaptive)
Weight generation scheme         WeightScheme... Becke
Basis function cutoff            BFCut       ... 1.0000e-11
Integration weight cutoff        WCut        ... 1.0000e-14
Angular grids for H and He will be reduced by one unit
Partially contracted basis set               ... on
Rotationally invariant grid construction     ... off

Total number of grid points                  ...    19679
Total number of batches                      ...      310
Average number of points per batch           ...       63
Average number of grid points per atom       ...     4920
UseSFitting                                  ... on

Time for X-Grid setup             =    0.342 sec

--------------
SCF ITERATIONS
--------------
ITER       Energy         Delta-E        Max-DP      RMS-DP      [F,P]     Damp
               ***  Starting incremental Fock matrix formation  ***
  0   -337.5764137209   0.000000000000 0.01416090  0.00034899  0.0622294 0.7000
  1   -337.5970790842  -0.020665363235 0.01015642  0.00023947  0.0299034 0.7000
                               ***Turning on DIIS***
  2   -337.6061446883  -0.009065604090 0.02023060  0.00048114  0.0158244 0.0000
  3   -337.6231223702  -0.016977681928 0.00618282  0.00014374  0.0148599 0.0000
  4   -337.6255969719  -0.002474601693 0.00653105  0.00010927  0.0046405 0.0000
  5   -337.6259152479  -0.000318276034 0.00552004  0.00008040  0.0030853 0.0000
  6   -337.6260325745  -0.000117326541 0.00420488  0.00005911  0.0016198 0.0000
  7   -337.6260719699  -0.000039395440 0.00470772  0.00006132  0.0008498 0.0000
               *** Restarting incremental Fock matrix formation ***
                                   *** Resetting DIIS ***
  8   -337.6260860952  -0.000014125244 0.00067500  0.00000934  0.0001548 0.0000
  9   -337.6260866237  -0.000000528501 0.00025110  0.00000312  0.0000966 0.0000
 10   -337.6260867599  -0.000000136247 0.00016629  0.00000219  0.0000368 0.0000
 11   -337.6260868070  -0.000000047069 0.00004060  0.00000071  0.0000131 0.0000
 12   -337.6260868109  -0.000000003887 0.00002334  0.00000028  0.0000044 0.0000
 13   -337.6260868089   0.000000001936 0.00000444  0.00000008  0.0000010 0.0000
                 **** Energy Check signals convergence ****

               *****************************************************
               *                     SUCCESS                       *
               *           SCF CONVERGED AFTER  14 CYCLES          *
               *****************************************************

Old exchange energy                            =    -10.535374294 Eh
New exchange energy                            =    -10.535388208 Eh
Exchange energy change after final integration =     -0.000013914 Eh
Total energy after final integration           =   -337.626100723 Eh
Final COS-X integration done in                =     0.394 sec

----------------
TOTAL SCF ENERGY
----------------

Total Energy       :         -337.62610072 Eh           -9187.27327 eV

Components:
Nuclear Repulsion  :          123.00381797 Eh            3347.10405 eV
Electronic Energy  :         -460.62991870 Eh          -12534.37732 eV
One Electron Energy:         -712.76442714 Eh          -19395.30610 eV
Two Electron Energy:          252.13450844 Eh            6860.92878 eV
Max COSX asymmetry :            0.00000045 Eh               0.00001 eV

Virial components:
Potential Energy   :         -674.17778074 Eh          -18345.31007 eV
Kinetic Energy     :          336.55168002 Eh            9158.03680 eV
Virial Ratio       :            2.00319244


DFT components:
N(Alpha)           :       16.999853672523 electrons
N(Beta)            :       15.999923787813 electrons
N(Total)           :       32.999777460337 electrons
E(XC)              :      -26.187166199252 Eh       
DFET-embed. en.    :        0.000000000000 Eh       

---------------
SCF CONVERGENCE
---------------

  Last Energy change         ...    7.7779e-10  Tolerance :   1.0000e-08
  Last MAX-Density change    ...    0.0000e+00  Tolerance :   1.0000e-07
  Last RMS-Density change    ...    0.0000e+00  Tolerance :   5.0000e-09
  Last DIIS Error            ...    6.0553e-07  Tolerance :   5.0000e-07

             **** THE GBW FILE WAS UPDATED (/beegfs/scratch/ispackman/PFAS_EPR_calcs/benchmark/JChemEd_CF3_radical/CF3_radical_115.5_degrees_IN-PROGRESS/CF3_radical_115.5_degrees.gbw) ****
             **** DENSITY /beegfs/scratch/ispackman/PFAS_EPR_calcs/benchmark/JChemEd_CF3_radical/CF3_radical_115.5_degrees_IN-PROGRESS/CF3_radical_115.5_degrees.scfp WAS UPDATED ****
             **** ENERGY FILE WAS UPDATED (/beegfs/scratch/ispackman/PFAS_EPR_calcs/benchmark/JChemEd_CF3_radical/CF3_radical_115.5_degrees_IN-PROGRESS/CF3_radical_115.5_degrees.en.tmp) ****
----------------------
UHF SPIN CONTAMINATION
----------------------

Warning: in a DFT calculation there is little theoretical justification to 
         calculate <S**2> as in Hartree-Fock theory. We will do it anyways
         but you should keep in mind that the values have only limited relevance

Expectation value of <S**2>     :     0.752042
Ideal value S*(S+1) for S=0.5   :     0.750000
Deviation                       :     0.002042

             **** THE GBW FILE WAS UPDATED (/beegfs/scratch/ispackman/PFAS_EPR_calcs/benchmark/JChemEd_CF3_radical/CF3_radical_115.5_degrees_IN-PROGRESS/CF3_radical_115.5_degrees.gbw) ****
             **** DENSITY /beegfs/scratch/ispackman/PFAS_EPR_calcs/benchmark/JChemEd_CF3_radical/CF3_radical_115.5_degrees_IN-PROGRESS/CF3_radical_115.5_degrees.scfp WAS UPDATED ****
----------------
ORBITAL ENERGIES
----------------
                 SPIN UP ORBITALS
  NO   OCC          E(Eh)            E(eV) 
   0   1.0000     -24.857253      -676.4002 
   1   1.0000     -24.857239      -676.3999 
   2   1.0000     -24.857230      -676.3996 
   3   1.0000     -10.531976      -286.5896 
   4   1.0000      -1.465144       -39.8686 
   5   1.0000      -1.387747       -37.7625 
   6   1.0000      -1.387744       -37.7624 
   7   1.0000      -0.837836       -22.7987 
   8   1.0000      -0.735266       -20.0076 
   9   1.0000      -0.735261       -20.0075 
  10   1.0000      -0.699094       -19.0233 
  11   1.0000      -0.606060       -16.4917 
  12   1.0000      -0.606058       -16.4917 
  13   1.0000      -0.582452       -15.8493 
  14   1.0000      -0.582442       -15.8491 
  15   1.0000      -0.553500       -15.0615 
  16   1.0000      -0.338769        -9.2184 
  17   0.0000       0.065494         1.7822 
  18   0.0000       0.101768         2.7693 
  19   0.0000       0.101769         2.7693 
  20   0.0000       0.116798         3.1782 
  21   0.0000       0.155520         4.2319 
  22   0.0000       0.155520         4.2319 
  23   0.0000       0.173039         4.7086 
  24   0.0000       0.173778         4.7287 
  25   0.0000       0.173779         4.7288 
  26   0.0000       0.210397         5.7252 
  27   0.0000       0.237571         6.4646 
  28   0.0000       0.266138         7.2420 
  29   0.0000       0.266140         7.2420 
  30   0.0000       0.320942         8.7333 
  31   0.0000       0.358331         9.7507 
  32   0.0000       0.374004        10.1772 
  33   0.0000       0.374011        10.1774 
  34   0.0000       0.382580        10.4105 
  35   0.0000       0.382582        10.4106 
  36   0.0000       0.403215        10.9720 
  37   0.0000       0.433367        11.7925 
  38   0.0000       0.433368        11.7925 
  39   0.0000       0.480135        13.0651 
  40   0.0000       0.488990        13.3061 
  41   0.0000       0.488993        13.3062 
  42   0.0000       0.612962        16.6795 
  43   0.0000       0.660365        17.9695 
  44   0.0000       0.660366        17.9695 
  45   0.0000       0.667168        18.1546 
  46   0.0000       0.667172        18.1547 
  47   0.0000       0.716647        19.5010 
  48   0.0000       0.718427        19.5494 
  49   0.0000       0.718430        19.5495 
  50   0.0000       0.738311        20.0905 
  51   0.0000       0.742652        20.2086 
  52   0.0000       0.780825        21.2473 
  53   0.0000       0.780828        21.2474 
  54   0.0000       0.864753        23.5311 
  55   0.0000       0.864754        23.5312 
  56   0.0000       0.867395        23.6030 
  57   0.0000       0.963764        26.2254 
  58   0.0000       0.979530        26.6544 
  59   0.0000       0.979534        26.6545 
  60   0.0000       1.052141        28.6302 
  61   0.0000       1.052148        28.6304 
  62   0.0000       1.066741        29.0275 
  63   0.0000       1.151277        31.3278 
  64   0.0000       1.151277        31.3278 
  65   0.0000       1.170964        31.8636 
  66   0.0000       1.261424        34.3251 
  67   0.0000       1.269411        34.5424 
  68   0.0000       1.269422        34.5427 
  69   0.0000       1.274921        34.6924 
  70   0.0000       1.311301        35.6823 
  71   0.0000       1.311306        35.6825 
  72   0.0000       1.484016        40.3821 
  73   0.0000       1.484027        40.3824 
  74   0.0000       1.708702        46.4962 
  75   0.0000       2.101096        57.1737 
  76   0.0000       2.140035        58.2333 
  77   0.0000       2.140043        58.2335 
  78   0.0000       2.178429        59.2781 
  79   0.0000       2.207540        60.0702 
  80   0.0000       2.207554        60.0706 
  81   0.0000       2.295062        62.4518 
  82   0.0000       2.309381        62.8415 
  83   0.0000       2.364801        64.3495 
  84   0.0000       2.364808        64.3497 
  85   0.0000       2.520409        68.5838 
  86   0.0000       2.541047        69.1454 
  87   0.0000       2.541050        69.1455 
  88   0.0000       2.725956        74.1770 
  89   0.0000       2.725974        74.1775 
  90   0.0000       2.795227        76.0620 
  91   0.0000       2.941759        80.0493 
  92   0.0000       2.941761        80.0494 
  93   0.0000       3.126057        85.0643 
  94   0.0000       3.208301        87.3023 
  95   0.0000       3.208320        87.3028 
  96   0.0000       3.255288        88.5809 
  97   0.0000       3.328887        90.5836 
  98   0.0000       3.328896        90.5839 
  99   0.0000       3.355475        91.3071 
 100   0.0000       3.355494        91.3076 
 101   0.0000       3.381330        92.0107 
 102   0.0000       3.532320        96.1193 
 103   0.0000       3.532339        96.1198 
 104   0.0000       3.738973       101.7426 
 105   0.0000       3.807994       103.6208 
 106   0.0000       3.808057       103.6225 
 107   0.0000       3.880984       105.6069 
 108   0.0000       3.983138       108.3867 
 109   0.0000       3.983255       108.3899 
 110   0.0000       4.121685       112.1567 
 111   0.0000       4.121704       112.1573 
 112   0.0000       4.243108       115.4608 
 113   0.0000       4.248795       115.6156 
 114   0.0000       5.167069       140.6031 
 115   0.0000       5.453944       148.4094 
 116   0.0000       5.454006       148.4110 
 117   0.0000       6.884873       187.3469 
 118   0.0000       6.905147       187.8986 
 119   0.0000       6.905176       187.8994 
 120   0.0000       6.908019       187.9768 
 121   0.0000       6.910110       188.0336 
 122   0.0000       6.910145       188.0346 
 123   0.0000       6.916764       188.2147 
 124   0.0000       6.932780       188.6505 
 125   0.0000       6.932859       188.6527 
 126   0.0000       7.048749       191.8062 
 127   0.0000       7.097611       193.1358 
 128   0.0000       7.097666       193.1373 
 129   0.0000       7.153496       194.6565 
 130   0.0000       7.153503       194.6567 
 131   0.0000       7.271525       197.8683 
 132   0.0000       7.426174       202.0765 
 133   0.0000       7.426197       202.0771 
 134   0.0000       7.609703       207.0706 
 135   0.0000       7.631756       207.6706 
 136   0.0000       7.631787       207.6715 
 137   0.0000       7.905302       215.1142 
 138   0.0000       8.481849       230.8028 
 139   0.0000       8.504790       231.4271 
 140   0.0000       8.504805       231.4275 
 141   0.0000       8.576619       233.3817 
 142   0.0000       8.576627       233.3819 
 143   0.0000       8.590138       233.7495 
 144   0.0000       8.841803       240.5977 
 145   0.0000       8.851671       240.8662 
 146   0.0000       8.851672       240.8663 
 147   0.0000       8.970829       244.1087 
 148   0.0000       9.038490       245.9498 
 149   0.0000       9.038536       245.9511 
 150   0.0000       9.246794       251.6180 
 151   0.0000       9.357951       254.6428 
 152   0.0000       9.357961       254.6431 
 153   0.0000      22.935313       624.1016 
 154   0.0000      57.160657      1555.4206 
 155   0.0000      57.288062      1558.8874 
 156   0.0000      57.288085      1558.8880 

                 SPIN DOWN ORBITALS
  NO   OCC          E(Eh)            E(eV) 
   0   1.0000     -24.854265      -676.3189 
   1   1.0000     -24.854251      -676.3186 
   2   1.0000     -24.854236      -676.3181 
   3   1.0000     -10.519094      -286.2391 
   4   1.0000      -1.454634       -39.5826 
   5   1.0000      -1.379492       -37.5379 
   6   1.0000      -1.379486       -37.5377 
   7   1.0000      -0.818917       -22.2839 
   8   1.0000      -0.725761       -19.7490 
   9   1.0000      -0.725755       -19.7488 
  10   1.0000      -0.661912       -18.0115 
  11   1.0000      -0.596323       -16.2268 
  12   1.0000      -0.596322       -16.2267 
  13   1.0000      -0.570943       -15.5361 
  14   1.0000      -0.570932       -15.5358 
  15   1.0000      -0.550320       -14.9750 
  16   0.0000       0.012050         0.3279 
  17   0.0000       0.079669         2.1679 
  18   0.0000       0.105687         2.8759 
  19   0.0000       0.105687         2.8759 
  20   0.0000       0.132862         3.6154 
  21   0.0000       0.159106         4.3295 
  22   0.0000       0.159107         4.3295 
  23   0.0000       0.181208         4.9309 
  24   0.0000       0.181208         4.9309 
  25   0.0000       0.184926         5.0321 
  26   0.0000       0.225910         6.1473 
  27   0.0000       0.240343         6.5401 
  28   0.0000       0.280707         7.6384 
  29   0.0000       0.280708         7.6384 
  30   0.0000       0.329077         8.9546 
  31   0.0000       0.368816        10.0360 
  32   0.0000       0.381746        10.3878 
  33   0.0000       0.381746        10.3878 
  34   0.0000       0.397440        10.8149 
  35   0.0000       0.397445        10.8150 
  36   0.0000       0.418434        11.3862 
  37   0.0000       0.435010        11.8372 
  38   0.0000       0.435012        11.8373 
  39   0.0000       0.486186        13.2298 
  40   0.0000       0.488761        13.2999 
  41   0.0000       0.488762        13.2999 
  42   0.0000       0.621029        16.8990 
  43   0.0000       0.662421        18.0254 
  44   0.0000       0.662422        18.0254 
  45   0.0000       0.668874        18.2010 
  46   0.0000       0.668879        18.2011 
  47   0.0000       0.717399        19.5214 
  48   0.0000       0.725135        19.7319 
  49   0.0000       0.725139        19.7320 
  50   0.0000       0.741998        20.1908 
  51   0.0000       0.749033        20.3822 
  52   0.0000       0.782983        21.3060 
  53   0.0000       0.782985        21.3061 
  54   0.0000       0.867813        23.6144 
  55   0.0000       0.867813        23.6144 
  56   0.0000       0.869291        23.6546 
  57   0.0000       0.977499        26.5991 
  58   0.0000       0.990088        26.9417 
  59   0.0000       0.990090        26.9417 
  60   0.0000       1.054699        28.6998 
  61   0.0000       1.054702        28.6999 
  62   0.0000       1.070346        29.1256 
  63   0.0000       1.153212        31.3805 
  64   0.0000       1.153214        31.3805 
  65   0.0000       1.178405        32.0660 
  66   0.0000       1.272546        34.6277 
  67   0.0000       1.274990        34.6943 
  68   0.0000       1.277308        34.7573 
  69   0.0000       1.277314        34.7575 
  70   0.0000       1.320098        35.9217 
  71   0.0000       1.320108        35.9220 
  72   0.0000       1.492716        40.6189 
  73   0.0000       1.492723        40.6190 
  74   0.0000       1.762541        47.9612 
  75   0.0000       2.109388        57.3994 
  76   0.0000       2.148123        58.4534 
  77   0.0000       2.148129        58.4536 
  78   0.0000       2.180156        59.3251 
  79   0.0000       2.215987        60.3001 
  80   0.0000       2.215992        60.3002 
  81   0.0000       2.297350        62.5141 
  82   0.0000       2.332134        63.4606 
  83   0.0000       2.373396        64.5834 
  84   0.0000       2.373397        64.5834 
  85   0.0000       2.524172        68.6862 
  86   0.0000       2.552428        69.4551 
  87   0.0000       2.552438        69.4554 
  88   0.0000       2.739203        74.5375 
  89   0.0000       2.739232        74.5383 
  90   0.0000       2.811500        76.5048 
  91   0.0000       2.946011        80.1650 
  92   0.0000       2.946027        80.1655 
  93   0.0000       3.172858        86.3379 
  94   0.0000       3.226152        87.7881 
  95   0.0000       3.226203        87.7895 
  96   0.0000       3.273704        89.0820 
  97   0.0000       3.342363        90.9503 
  98   0.0000       3.342431        90.9522 
  99   0.0000       3.385579        92.1263 
 100   0.0000       3.397752        92.4575 
 101   0.0000       3.397758        92.4577 
 102   0.0000       3.567140        97.0668 
 103   0.0000       3.567179        97.0679 
 104   0.0000       3.767022       102.5059 
 105   0.0000       3.815352       103.8210 
 106   0.0000       3.815426       103.8230 
 107   0.0000       3.889822       105.8474 
 108   0.0000       4.000887       108.8697 
 109   0.0000       4.000920       108.8706 
 110   0.0000       4.126386       112.2847 
 111   0.0000       4.126408       112.2853 
 112   0.0000       4.253381       115.7404 
 113   0.0000       4.258983       115.8928 
 114   0.0000       5.181465       140.9948 
 115   0.0000       5.465373       148.7204 
 116   0.0000       5.465381       148.7206 
 117   0.0000       6.886821       187.3999 
 118   0.0000       6.910484       188.0438 
 119   0.0000       6.910508       188.0445 
 120   0.0000       6.914153       188.1437 
 121   0.0000       6.914852       188.1627 
 122   0.0000       6.914884       188.1635 
 123   0.0000       6.921873       188.3537 
 124   0.0000       6.936595       188.7543 
 125   0.0000       6.936671       188.7564 
 126   0.0000       7.052809       191.9167 
 127   0.0000       7.102307       193.2636 
 128   0.0000       7.102362       193.2651 
 129   0.0000       7.158137       194.7828 
 130   0.0000       7.158140       194.7829 
 131   0.0000       7.279202       198.0772 
 132   0.0000       7.435458       202.3291 
 133   0.0000       7.435474       202.3295 
 134   0.0000       7.618664       207.3144 
 135   0.0000       7.637416       207.8247 
 136   0.0000       7.637445       207.8254 
 137   0.0000       7.913015       215.3241 
 138   0.0000       8.488388       230.9808 
 139   0.0000       8.514494       231.6912 
 140   0.0000       8.514507       231.6915 
 141   0.0000       8.586303       233.6452 
 142   0.0000       8.586309       233.6454 
 143   0.0000       8.596947       233.9348 
 144   0.0000       8.853457       240.9148 
 145   0.0000       8.860959       241.1190 
 146   0.0000       8.860964       241.1191 
 147   0.0000       8.977516       244.2906 
 148   0.0000       9.042294       246.0533 
 149   0.0000       9.042337       246.0545 
 150   0.0000       9.253548       251.8018 
 151   0.0000       9.364015       254.8078 
 152   0.0000       9.364026       254.8081 
 153   0.0000      22.958112       624.7220 
 154   0.0000      57.163634      1555.5016 
 155   0.0000      57.291016      1558.9678 
 156   0.0000      57.291039      1558.9684 

                    ********************************
                    * MULLIKEN POPULATION ANALYSIS *
                    ********************************

--------------------------------------------
MULLIKEN ATOMIC CHARGES AND SPIN POPULATIONS
--------------------------------------------
   0 C :    0.512177    0.840350
   1 F :   -0.170685    0.053220
   2 F :   -0.170746    0.053215
   3 F :   -0.170746    0.053216
Sum of atomic charges         :   -0.0000000
Sum of atomic spin populations:    1.0000000

-----------------------------------------------------
MULLIKEN REDUCED ORBITAL CHARGES AND SPIN POPULATIONS
-----------------------------------------------------
CHARGE
  0 C s       :     3.140655  s :     3.140655
      pz      :     0.959861  p :     2.004972
      px      :     0.522605
      py      :     0.522505
      dz2     :     0.040196  d :     0.303106
      dxz     :     0.050643
      dyz     :     0.050626
      dx2y2   :     0.080813
      dxy     :     0.080828
      f0      :     0.003478  f :     0.039090
      f+1     :     0.003529
      f-1     :     0.003529
      f+2     :     0.004940
      f-2     :     0.004941
      f+3     :     0.005509
      f-3     :     0.013164
  1 F s       :     3.954841  s :     3.954841
      pz      :     1.860048  p :     5.202525
      px      :     1.429151
      py      :     1.913326
      dz2     :     0.000698  d :     0.012525
      dxz     :     0.007762
      dyz     :    -0.000079
      dx2y2   :     0.005840
      dxy     :    -0.001695
      f0      :     0.000078  f :     0.000794
      f+1     :     0.000161
      f-1     :     0.000008
      f+2     :     0.000149
      f-2     :     0.000015
      f+3     :     0.000238
      f-3     :     0.000145
  2 F s       :     3.954872  s :     3.954872
      pz      :     1.860024  p :     5.202551
      px      :     1.792329
      py      :     1.550198
      dz2     :     0.000699  d :     0.012528
      dxz     :     0.001881
      dyz     :     0.005800
      dx2y2   :     0.000189
      dxy     :     0.003959
      f0      :     0.000079  f :     0.000794
      f+1     :     0.000046
      f-1     :     0.000122
      f+2     :     0.000048
      f-2     :     0.000115
      f+3     :     0.000238
      f-3     :     0.000145
  3 F s       :     3.954872  s :     3.954872
      pz      :     1.860024  p :     5.202551
      px      :     1.792329
      py      :     1.550198
      dz2     :     0.000699  d :     0.012528
      dxz     :     0.001881
      dyz     :     0.005800
      dx2y2   :     0.000189
      dxy     :     0.003959
      f0      :     0.000079  f :     0.000794
      f+1     :     0.000046
      f-1     :     0.000122
      f+2     :     0.000048
      f-2     :     0.000115
      f+3     :     0.000238
      f-3     :     0.000145

SPIN
  0 C s       :     0.218819  s :     0.218819
      pz      :     0.586665  p :     0.608210
      px      :     0.010783
      py      :     0.010762
      dz2     :     0.017747  d :     0.014167
      dxz     :    -0.001692
      dyz     :    -0.001689
      dx2y2   :    -0.000101
      dxy     :    -0.000098
      f0      :    -0.000458  f :    -0.000847
      f+1     :    -0.000538
      f-1     :    -0.000539
      f+2     :    -0.000049
      f-2     :    -0.000048
      f+3     :     0.000700
      f-3     :     0.000085
  1 F s       :     0.002744  s :     0.002744
      pz      :     0.054513  p :     0.047971
      px      :    -0.005363
      py      :    -0.001179
      dz2     :     0.000205  d :     0.002456
      dxz     :     0.001696
      dyz     :     0.000017
      dx2y2   :     0.000531
      dxy     :     0.000007
      f0      :     0.000001  f :     0.000049
      f+1     :     0.000023
      f-1     :    -0.000001
      f+2     :     0.000017
      f-2     :     0.000001
      f+3     :     0.000006
      f-3     :     0.000001
  2 F s       :     0.002745  s :     0.002745
      pz      :     0.054517  p :     0.047969
      px      :    -0.002229
      py      :    -0.004318
      dz2     :     0.000205  d :     0.002451
      dxz     :     0.000437
      dyz     :     0.001277
      dx2y2   :     0.000136
      dxy     :     0.000396
      f0      :     0.000001  f :     0.000049
      f+1     :     0.000005
      f-1     :     0.000017
      f+2     :     0.000005
      f-2     :     0.000013
      f+3     :     0.000006
      f-3     :     0.000001
  3 F s       :     0.002746  s :     0.002746
      pz      :     0.054517  p :     0.047970
      px      :    -0.002229
      py      :    -0.004318
      dz2     :     0.000205  d :     0.002451
      dxz     :     0.000437
      dyz     :     0.001277
      dx2y2   :     0.000136
      dxy     :     0.000396
      f0      :     0.000001  f :     0.000049
      f+1     :     0.000005
      f-1     :     0.000017
      f+2     :     0.000005
      f-2     :     0.000013
      f+3     :     0.000006
      f-3     :     0.000001


                     *******************************
                     * LOEWDIN POPULATION ANALYSIS *
                     *******************************

-------------------------------------------
LOEWDIN ATOMIC CHARGES AND SPIN POPULATIONS
-------------------------------------------
   0 C :   -0.430056    0.612217
   1 F :    0.143364    0.129253
   2 F :    0.143346    0.129265
   3 F :    0.143346    0.129265

----------------------------------------------------
LOEWDIN REDUCED ORBITAL CHARGES AND SPIN POPULATIONS
----------------------------------------------------
CHARGE
  0 C s       :     2.658194  s :     2.658194
      pz      :     0.834908  p :     2.245073
      px      :     0.705087
      py      :     0.705078
      dz2     :     0.167729  d :     1.275474
      dxz     :     0.184590
      dyz     :     0.184583
      dx2y2   :     0.369283
      dxy     :     0.369288
      f0      :     0.017555  f :     0.251315
      f+1     :     0.021019
      f-1     :     0.021020
      f+2     :     0.032618
      f-2     :     0.032619
      f+3     :     0.052758
      f-3     :     0.073727
  1 F s       :     3.566168  s :     3.566168
      pz      :     1.762915  p :     5.094864
      px      :     1.548845
      py      :     1.783104
      dz2     :     0.025654  d :     0.193670
      dxz     :     0.064547
      dyz     :     0.002872
      dx2y2   :     0.045868
      dxy     :     0.054728
      f0      :     0.000207  f :     0.001935
      f+1     :     0.000378
      f-1     :     0.000020
      f+2     :     0.000449
      f-2     :     0.000035
      f+3     :     0.000486
      f-3     :     0.000360
  2 F s       :     3.566170  s :     3.566170
      pz      :     1.762912  p :     5.094878
      px      :     1.724552
      py      :     1.607414
      dz2     :     0.025655  d :     0.193671
      dxz     :     0.018291
      dyz     :     0.049128
      dx2y2   :     0.052514
      dxy     :     0.048083
      f0      :     0.000207  f :     0.001935
      f+1     :     0.000110
      f-1     :     0.000289
      f+2     :     0.000138
      f-2     :     0.000345
      f+3     :     0.000486
      f-3     :     0.000360
  3 F s       :     3.566170  s :     3.566170
      pz      :     1.762912  p :     5.094878
      px      :     1.724552
      py      :     1.607414
      dz2     :     0.025655  d :     0.193671
      dxz     :     0.018291
      dyz     :     0.049128
      dx2y2   :     0.052514
      dxy     :     0.048083
      f0      :     0.000207  f :     0.001935
      f+1     :     0.000110
      f-1     :     0.000289
      f+2     :     0.000138
      f-2     :     0.000345
      f+3     :     0.000486
      f-3     :     0.000360

SPIN
  0 C s       :     0.105337  s :     0.105337
      pz      :     0.446746  p :     0.459482
      px      :     0.006372
      py      :     0.006364
      dz2     :     0.048125  d :     0.039209
      dxz     :    -0.003826
      dyz     :    -0.003824
      dx2y2   :    -0.000633
      dxy     :    -0.000634
      f0      :     0.000579  f :     0.008189
      f+1     :    -0.000343
      f-1     :    -0.000343
      f+2     :    -0.000186
      f-2     :    -0.000186
      f+3     :     0.008669
      f-3     :    -0.000002
  1 F s       :     0.014228  s :     0.014228
      pz      :     0.069667  p :     0.072798
      px      :     0.003778
      py      :    -0.000647
      dz2     :     0.003065  d :     0.041711
      dxz     :     0.036784
      dyz     :    -0.000079
      dx2y2   :     0.001870
      dxy     :     0.000071
      f0      :     0.000099  f :     0.000517
      f+1     :     0.000135
      f-1     :     0.000000
      f+2     :     0.000260
      f-2     :     0.000001
      f+3     :     0.000017
      f-3     :     0.000005
  2 F s       :     0.014228  s :     0.014228
      pz      :     0.069672  p :     0.072809
      px      :     0.000459
      py      :     0.002678
      dz2     :     0.003066  d :     0.041711
      dxz     :     0.009137
      dyz     :     0.027568
      dx2y2   :     0.000521
      dxy     :     0.001420
      f0      :     0.000099  f :     0.000517
      f+1     :     0.000034
      f-1     :     0.000101
      f+2     :     0.000065
      f-2     :     0.000195
      f+3     :     0.000017
      f-3     :     0.000005
  3 F s       :     0.014228  s :     0.014228
      pz      :     0.069672  p :     0.072809
      px      :     0.000459
      py      :     0.002678
      dz2     :     0.003066  d :     0.041711
      dxz     :     0.009137
      dyz     :     0.027568
      dx2y2   :     0.000521
      dxy     :     0.001420
      f0      :     0.000099  f :     0.000517
      f+1     :     0.000034
      f-1     :     0.000101
      f+2     :     0.000065
      f-2     :     0.000195
      f+3     :     0.000017
      f-3     :     0.000005


                      *****************************
                      * MAYER POPULATION ANALYSIS *
                      *****************************

  NA   - Mulliken gross atomic population
  ZA   - Total nuclear charge
  QA   - Mulliken gross atomic charge
  VA   - Mayer's total valence
  BVA  - Mayer's bonded valence
  FA   - Mayer's free valence

  ATOM       NA         ZA         QA         VA         BVA        FA
  0 C      5.4878     6.0000     0.5122     3.8349     3.1525     0.6824
  1 F      9.1707     9.0000    -0.1707     1.0838     1.0796     0.0042
  2 F      9.1707     9.0000    -0.1707     1.0837     1.0795     0.0042
  3 F      9.1707     9.0000    -0.1707     1.0837     1.0795     0.0042

  Mayer bond orders larger than 0.100000
B(  0-C ,  1-F ) :   1.0509 B(  0-C ,  2-F ) :   1.0508 B(  0-C ,  3-F ) :   1.0508 


-------
TIMINGS
-------

Total SCF time: 0 days 0 hours 0 min 12 sec 

Total time                  ....      12.445 sec
Sum of individual times     ....      11.612 sec  ( 93.3%)

Fock matrix formation       ....       9.891 sec  ( 79.5%)
  Split-RI-J                ....       1.239 sec  ( 12.5% of F)
  Chain of spheres X        ....       3.331 sec  ( 33.7% of F)
  XC integration            ....       2.082 sec  ( 21.1% of F)
    Basis function eval.    ....       0.135 sec  (  6.5% of XC)
    Density eval.           ....       0.173 sec  (  8.3% of XC)
    XC-Functional eval.     ....       0.072 sec  (  3.5% of XC)
    XC-Potential eval.      ....       0.326 sec  ( 15.6% of XC)
Diagonalization             ....       0.411 sec  (  3.3%)
Density matrix formation    ....       0.018 sec  (  0.1%)
Population analysis         ....       0.139 sec  (  1.1%)
Initial guess               ....       0.125 sec  (  1.0%)
Orbital Transformation      ....       0.000 sec  (  0.0%)
Orbital Orthonormalization  ....       0.000 sec  (  0.0%)
DIIS solution               ....       0.488 sec  (  3.9%)
Grid generation             ....       0.539 sec  (  4.3%)

Maximum memory used throughout the entire SCF-calculation: 63.1 MB


-------------------------------------------------------------------------------
                          DFT DISPERSION CORRECTION                            
                                                                               
                              DFTD3 V3.1  Rev 1                                
                              USING zero damping                               
-------------------------------------------------------------------------------
The omegaB97X-D3 functional is recognized. Fit by Chai et al.
Active option DFTDOPT                   ...         3   

molecular C6(AA) [au] = 165.810926 


            DFT-D V3
 parameters
 s6 scaling factor         :     1.0000 
 rs6 scaling factor        :     1.2810 
 s8 scaling factor         :     1.0000 
 rs8 scaling factor        :     1.0940 
 Damping factor alpha6     :    14.0000 
 Damping factor alpha8     :    16.0000 
 ad hoc parameters k1-k3   :    16.0000     1.3333    -4.0000 

 Edisp/kcal,au: -0.062372547698  -0.000099396971 
 E6   /kcal   :  -0.008027135 
 E8   /kcal   :  -0.054345412 
 % E8         :  87.130339276 

-------------------------   ----------------
Dispersion correction           -0.000099397
-------------------------   ----------------


-------------------------   --------------------
FINAL SINGLE POINT ENERGY      -337.626200119575
-------------------------   --------------------



           ************************************************************
           *        Program running with 18 parallel MPI-processes    *
           *              working on a common directory               *
           ************************************************************
------------------------------------------------------------------------------
                         ORCA SCF GRADIENT CALCULATION
------------------------------------------------------------------------------

 ... reading COSX grid (gridx3)
Gradient of the Kohn-Sham DFT energy:
Kohn-Sham wavefunction type      ... UKS
Hartree-Fock exchange scaling    ...    0.196
Number of operators              ...    2
Number of atoms                  ...    4
Basis set dimensions             ...  157
Integral neglect threshold       ... 2.5e-11
Integral primitive cutoff        ... 2.5e-12
SHARK Integral package           ... ON

Nuc. rep. gradient       (SHARK) ... done (  0.0 sec)
HCore & Overlap gradient (SHARK) ... done (  0.0 sec)
RI-J gradient            (SHARK) ... done (  0.1 sec)
COSX-gradient                    ... done (  0.4 sec)
Exchange-correlation gradient    ... done
Dispersion correction            ... done

------------------
CARTESIAN GRADIENT
------------------

WARNING: THERE ARE 3 CONSTRAINED CARTESIAN COORDINATES
   1   C   :   -0.000105138    0.000000067   -0.051815435
   2   F   :    0.009085183   -0.000000062    0.017317420
   3   F   :   -0.004421468    0.008105148    0.017596321
   4   F   :   -0.004421633   -0.008105341    0.017596287

Difference to translation invariance:
           :    0.0001369445   -0.0000001882    0.0006945925

Difference to rotation invariance:
           :   -0.0000000655    0.0005473028   -0.0000002626

Norm of the cartesian gradient     ...    0.0621050240
RMS gradient                       ...    0.0179281762
MAX gradient                       ...    0.0518154354

-------
TIMINGS
-------

Total SCF gradient time            ...        1.104 sec

One electron gradient       ....       0.013 sec  (  1.2%)
RI-J Coulomb gradient       ....       0.143 sec  ( 13.0%)
COSX gradient               ....       0.428 sec  ( 38.8%)
XC gradient                 ....       0.159 sec  ( 14.4%)

Maximum memory used throughout the entire SCFGRAD-calculation: 37.2 MB
------------------------------------------------------------------------------
                         ORCA GEOMETRY RELAXATION STEP
------------------------------------------------------------------------------

Reading the OPT-File                    .... done
Getting information on internals        .... done
Copying old internal coords+grads       .... done
Making the new internal coordinates     .... (new redundants).... done
Validating the new internal coordinates .... (new redundants).... done
Calculating the B-matrix                .... done
Calculating the G,G- and P matrices     .... done
Transforming gradient to internals      .... done
Projecting the internal gradient        .... done
Number of atoms                         ....   4
Number of internal coordinates          ....   7
Current Energy                          ....  -337.626200120 Eh
Current gradient norm                   ....     0.062105024 Eh/bohr
Maximum allowed component of the step   ....  0.300
Current trust radius                    ....  0.300
Evaluating the initial hessian          ....  (Almloef) done
Projecting the Hessian                  .... done
Forming the augmented Hessian           .... done
Diagonalizing the augmented Hessian     .... done
Last element of RFO vector              ....  0.999912331
Lowest eigenvalues of augmented Hessian:
 -0.000120125  0.684895726  0.684895726  0.685015850 1000.000000000
Length of the computed step             ....  0.013242369
The final length of the internal step   ....  0.013242369
Converting the step to cartesian space:
 Initial RMS(Int)=    0.0050051450
Transforming coordinates:
 Iter   0:  RMS(Cart)=    0.0037555859 RMS(Int)=    0.0050051450
 Iter   1:  RMS(Cart)=    0.0000000002 RMS(Int)=    0.0000000005
Imposing constraints:
 Iter   0:  RMS(Cart)=    0.0000000007 RMS(Int)=    0.0000000033
CONVERGED
done
Storing new coordinates                 .... done

                                .--------------------.
          ----------------------|Geometry convergence|-------------------------
          Item                value                   Tolerance       Converged
          ---------------------------------------------------------------------
          RMS gradient        0.0034286037            0.0001000000      NO
          MAX gradient        0.0052936710            0.0003000000      NO
          RMS step            0.0050051450            0.0020000000      NO
          MAX step            0.0077278081            0.0040000000      NO
          ........................................................
          Max(Bonds)      0.0041      Max(Angles)    0.00
          Max(Dihed)        0.00      Max(Improp)    0.00
          ---------------------------------------------------------------------

The optimization has not yet converged - more geometry cycles are needed


    ---------------------------------------------------------------------------
                         Redundant Internal Coordinates
                            (Angstroem and degrees)

        Definition                    Value    dE/dq     Step     New-Value
    ----------------------------------------------------------------------------
     1. B(F   1,C   0)                1.3150  0.005123 -0.0040    1.3110   
     2. B(F   2,C   0)                1.3150  0.005294 -0.0041    1.3109   
     3. B(F   3,C   0)                1.3150  0.005294 -0.0041    1.3109   
     4. A(F   2,C   0,F   3)          115.50  0.021826   -0.00    115.50 C 
     5. A(F   1,C   0,F   2)          115.50  0.006521   -0.00    115.50 C 
     6. A(F   1,C   0,F   3)          115.50  0.006521    0.00    115.50 C 
     7. I(F   1,F   3,F   2,C   0)     36.22 -0.042286    0.00     36.22   
    ----------------------------------------------------------------------------

         *************************************************************
         *                GEOMETRY OPTIMIZATION CYCLE   2            *
         *************************************************************
---------------------------------
CARTESIAN COORDINATES (ANGSTROEM)
---------------------------------
  C     -0.000034   -0.000000   -0.000653
  F      1.280283   -0.000000   -0.282821
  F     -0.640125    1.108674   -0.282813
  F     -0.640124   -1.108674   -0.282813

----------------------------
CARTESIAN COORDINATES (A.U.)
----------------------------
  NO LB      ZA    FRAG     MASS         X           Y           Z
   0 C     6.0000    0    12.011   -0.000065   -0.000000   -0.001234
   1 F     9.0000    0    18.998    2.419385   -0.000000   -0.534454
   2 F     9.0000    0    18.998   -1.209660    2.095090   -0.534440
   3 F     9.0000    0    18.998   -1.209660   -2.095089   -0.534440

--------------------------------
INTERNAL COORDINATES (ANGSTROEM)
--------------------------------
 C      0   0   0     0.000000000000     0.00000000     0.00000000
 F      1   0   0     1.311042612503     0.00000000     0.00000000
 F      1   2   0     1.310910751650   115.50000002     0.00000000
 F      1   2   3     1.310910620066   115.50000002   139.10936429

---------------------------
INTERNAL COORDINATES (A.U.)
---------------------------
 C      0   0   0     0.000000000000     0.00000000     0.00000000
 F      1   0   0     2.477511487532     0.00000000     0.00000000
 F      1   2   0     2.477262306632   115.50000002     0.00000000
 F      1   2   3     2.477262057973   115.50000002   139.10936429



           ************************************************************
           *        Program running with 18 parallel MPI-processes    *
           *              working on a common directory               *
           ************************************************************
------------------------------------------------------------------------------
                   ___                                                        
                  /   \      - P O W E R E D   B Y -                         
                 /     \                                                     
                 |  |  |   _    _      __       _____    __    __             
                 |  |  |  | |  | |    /  \     |  _  \  |  |  /  |          
                  \  \/   | |  | |   /    \    | | | |  |  | /  /          
                 / \  \   | |__| |  /  /\  \   | |_| |  |  |/  /          
                |  |  |   |  __  | /  /__\  \  |    /   |      \           
                |  |  |   | |  | | |   __   |  |    \   |  |\   \          
                \     /   | |  | | |  |  |  |  | |\  \  |  | \   \       
                 \___/    |_|  |_| |__|  |__|  |_| \__\ |__|  \__/        
                                                                              
                      - O R C A' S   B I G   F R I E N D -                    
                                      &                                       
                       - I N T E G R A L  F E E D E R -                       
                                                                              
 v1 FN, 2020, v2 2021                                                         
------------------------------------------------------------------------------


Reading SHARK input file /beegfs/scratch/ispackman/PFAS_EPR_calcs/benchmark/JChemEd_CF3_radical/CF3_radical_115.5_degrees_IN-PROGRESS/CF3_radical_115.5_degrees.SHARKINP.tmp ... ok
----------------------
SHARK INTEGRAL PACKAGE
----------------------

Number of atoms                             ...      4
Number of basis functions                   ...    157
Number of shells                            ...     55
Maximum angular momentum                    ...      3
Integral batch strategy                     ... SHARK/LIBINT Hybrid
RI-J (if used) integral strategy            ... SPLIT-RIJ (Revised 2003 algorithm where possible)
Printlevel                                  ...      1
Contraction scheme used                     ... SEGMENTED contraction
Coulomb Range Separation                    ... NOT USED
Exchange Range Separation                   ... Long Range
   Mu parameter                             ...  0.250000
   Scaling (regular/separated)              ...  0.195728  0.804272
Finite Nucleus Model                        ... NOT USED
Auxiliary Coulomb fitting basis             ... AVAILABLE
   # of basis functions in Aux-J            ...    196
   # of shells in Aux-J                     ...     60
   Maximum angular momentum in Aux-J        ...      4
Auxiliary J/K fitting basis                 ... NOT available
Auxiliary Correlation fitting basis         ... NOT available
Auxiliary 'external' fitting basis          ... NOT available
Integral threshold                          ...     2.500000e-11
Primitive cut-off                           ...     2.500000e-12
Primitive pair pre-selection threshold      ...     2.500000e-12

Calculating pre-screening integrals         ... done (  0.0 sec) Dimension = 55
Organizing shell pair data                  ... done (  0.0 sec)
Shell pair information
Total number of shell pairs                 ...      1540
Shell pairs after pre-screening             ...      1492
Total number of primitive shell pairs       ...      4274
Primitive shell pairs kept                  ...      3461
          la=0 lb=0:    276 shell pairs
          la=1 lb=0:    354 shell pairs
          la=1 lb=1:    120 shell pairs
          la=2 lb=0:    276 shell pairs
          la=2 lb=1:    180 shell pairs
          la=2 lb=2:     78 shell pairs
          la=3 lb=0:     90 shell pairs
          la=3 lb=1:     60 shell pairs
          la=3 lb=2:     48 shell pairs
          la=3 lb=3:     10 shell pairs

Calculating one electron integrals          ... done (  0.0 sec)
Calculating RI/J V-Matrix + Cholesky decomp.... done (  0.0 sec)
Calculating Nuclear repulsion               ... done (  0.0 sec) ENN=    123.383382804271 Eh

SHARK setup successfully completed in   0.3 seconds

Maximum memory used throughout the entire GTOINT-calculation: 15.2 MB


           ************************************************************
           *        Program running with 18 parallel MPI-processes    *
           *              working on a common directory               *
           ************************************************************

Diagonalization of the overlap matrix:
Smallest eigenvalue                        ... 2.824e-04
Time for diagonalization                   ...    0.008 sec
Threshold for overlap eigenvalues          ... 1.000e-08
Number of eigenvalues below threshold      ... 0
Time for construction of square roots      ...    0.012 sec
Total time needed                          ...    0.021 sec

-------------------
DFT GRID GENERATION
-------------------

General Integration Accuracy     IntAcc      ... 4.388
Radial Grid Type                 RadialGrid  ... OptM3 with GC (2021)
Angular Grid (max. ang.)         AngularGrid ... 4 (Lebedev-302)
Angular grid pruning method      GridPruning ... 4 (adaptive)
Weight generation scheme         WeightScheme... Becke
Basis function cutoff            BFCut       ... 1.0000e-11
Integration weight cutoff        WCut        ... 1.0000e-14
Angular grids for H and He will be reduced by one unit
Partially contracted basis set               ... off
Rotationally invariant grid construction     ... off

Total number of grid points                  ...    25768
Total number of batches                      ...      405
Average number of points per batch           ...       63
Average number of grid points per atom       ...     6442
Time for grid setup =    0.174 sec

--------------------
COSX GRID GENERATION
--------------------

GRIDX 1
-------
General Integration Accuracy     IntAcc      ... 3.816
Radial Grid Type                 RadialGrid  ... OptM3 with GC (2021)
Angular Grid (max. ang.)         AngularGrid ... 1 (Lebedev-50)
Angular grid pruning method      GridPruning ... 4 (adaptive)
Weight generation scheme         WeightScheme... Becke
Basis function cutoff            BFCut       ... 1.0000e-11
Integration weight cutoff        WCut        ... 1.0000e-14
Angular grids for H and He will be reduced by one unit
Partially contracted basis set               ... on
Rotationally invariant grid construction     ... off

Total number of grid points                  ...     3269
Total number of batches                      ...       52
Average number of points per batch           ...       62
Average number of grid points per atom       ...      817
UseSFitting                                  ... on

GRIDX 2
-------
General Integration Accuracy     IntAcc      ... 4.020
Radial Grid Type                 RadialGrid  ... OptM3 with GC (2021)
Angular Grid (max. ang.)         AngularGrid ... 2 (Lebedev-110)
Angular grid pruning method      GridPruning ... 4 (adaptive)
Weight generation scheme         WeightScheme... Becke
Basis function cutoff            BFCut       ... 1.0000e-11
Integration weight cutoff        WCut        ... 1.0000e-14
Angular grids for H and He will be reduced by one unit
Partially contracted basis set               ... on
Rotationally invariant grid construction     ... off

Total number of grid points                  ...     9149
Total number of batches                      ...      145
Average number of points per batch           ...       63
Average number of grid points per atom       ...     2287
UseSFitting                                  ... on

GRIDX 3
-------
General Integration Accuracy     IntAcc      ... 4.338
Radial Grid Type                 RadialGrid  ... OptM3 with GC (2021)
Angular Grid (max. ang.)         AngularGrid ... 3 (Lebedev-194)
Angular grid pruning method      GridPruning ... 4 (adaptive)
Weight generation scheme         WeightScheme... Becke
Basis function cutoff            BFCut       ... 1.0000e-11
Integration weight cutoff        WCut        ... 1.0000e-14
Angular grids for H and He will be reduced by one unit
Partially contracted basis set               ... on
Rotationally invariant grid construction     ... off

Total number of grid points                  ...    19675
Total number of batches                      ...      310
Average number of points per batch           ...       63
[...]
  VA   - Mayer's total valence
  BVA  - Mayer's bonded valence
  FA   - Mayer's free valence

  ATOM       NA         ZA         QA         VA         BVA        FA
  0 C      5.4840     6.0000     0.5160     3.8344     3.1519     0.6825
  1 F      9.1720     9.0000    -0.1720     1.0824     1.0782     0.0041
  2 F      9.1720     9.0000    -0.1720     1.0824     1.0783     0.0042
  3 F      9.1720     9.0000    -0.1720     1.0824     1.0783     0.0042

  Mayer bond orders larger than 0.100000
B(  0-C ,  1-F ) :   1.0506 B(  0-C ,  2-F ) :   1.0506 B(  0-C ,  3-F ) :   1.0506 


-------
TIMINGS
-------

Total SCF time: 0 days 0 hours 0 min 4 sec 

Total time                  ....       4.413 sec
Sum of individual times     ....       3.735 sec  ( 84.6%)

Fock matrix formation       ....       2.908 sec  ( 65.9%)
  Split-RI-J                ....       0.443 sec  ( 15.2% of F)
  Chain of spheres X        ....       1.375 sec  ( 47.3% of F)
  XC integration            ....       0.463 sec  ( 15.9% of F)
    Basis function eval.    ....       0.039 sec  (  8.3% of XC)
    Density eval.           ....       0.049 sec  ( 10.5% of XC)
    XC-Functional eval.     ....       0.021 sec  (  4.6% of XC)
    XC-Potential eval.      ....       0.066 sec  ( 14.3% of XC)
Diagonalization             ....       0.105 sec  (  2.4%)
Density matrix formation    ....       0.007 sec  (  0.2%)
Population analysis         ....       0.140 sec  (  3.2%)
Initial guess               ....       0.020 sec  (  0.5%)
Orbital Transformation      ....       0.000 sec  (  0.0%)
Orbital Orthonormalization  ....       0.010 sec  (  0.2%)
DIIS solution               ....       0.044 sec  (  1.0%)
Grid generation             ....       0.511 sec  ( 11.6%)

Maximum memory used throughout the entire SCF-calculation: 63.1 MB


-------------------------------------------------------------------------------
                          DFT DISPERSION CORRECTION                            
                                                                               
                              DFTD3 V3.1  Rev 1                                
                              USING zero damping                               
-------------------------------------------------------------------------------
The omegaB97X-D3 functional is recognized. Fit by Chai et al.
Active option DFTDOPT                   ...         3   

molecular C6(AA) [au] = 165.801209 


            DFT-D V3
 parameters
 s6 scaling factor         :     1.0000 
 rs6 scaling factor        :     1.2810 
 s8 scaling factor         :     1.0000 
 rs8 scaling factor        :     1.0940 
 Damping factor alpha6     :    14.0000 
 Damping factor alpha8     :    16.0000 
 ad hoc parameters k1-k3   :    16.0000     1.3333    -4.0000 

 Edisp/kcal,au: -0.060550649767  -0.000096493592 
 E6   /kcal   :  -0.007784705 
 E8   /kcal   :  -0.052765945 
 % E8         :  87.143482754 

-------------------------   ----------------
Dispersion correction           -0.000096494
-------------------------   ----------------


-------------------------   --------------------
FINAL SINGLE POINT ENERGY      -337.626276804376
-------------------------   --------------------

                                *** OPTIMIZATION RUN DONE ***

                            ***************************************
                            *     ORCA property calculations      *
                            ***************************************

                                    ---------------------
                                    Active property flags
                                    ---------------------
   (+) Dipole Moment


------------------------------------------------------------------------------
                       ORCA ELECTRIC PROPERTIES CALCULATION
------------------------------------------------------------------------------

Dipole Moment Calculation                       ... on
Quadrupole Moment Calculation                   ... off
Polarizability Calculation                      ... off
GBWName                                         ... /beegfs/scratch/ispackman/PFAS_EPR_calcs/benchmark/JChemEd_CF3_radical/CF3_radical_115.5_degrees_IN-PROGRESS/CF3_radical_115.5_degrees.gbw
Electron density                                ... /beegfs/scratch/ispackman/PFAS_EPR_calcs/benchmark/JChemEd_CF3_radical/CF3_radical_115.5_degrees_IN-PROGRESS/CF3_radical_115.5_degrees.scfp
The origin for moment calculation is the CENTER OF MASS  = ( 0.000012,  0.000000 -0.441603)

-------------
DIPOLE MOMENT
-------------
                                X             Y             Z
Electronic contribution:     -0.00039      -0.00000      -0.15991
Nuclear contribution   :     -0.00004      -0.00000       0.13641
                        -----------------------------------------
Total Dipole Moment    :     -0.00043      -0.00000      -0.02350
                        -----------------------------------------
Magnitude (a.u.)       :      0.02351
Magnitude (Debye)      :      0.05975



--------------------
Rotational spectrum 
--------------------
 
Rotational constants in cm-1:     0.355512     0.355429     0.180741 
Rotational constants in MHz : 10657.970539 10655.506481  5418.473816 

 Dipole components along the rotational axes: 
x,y,z [a.u.] :    -0.000426     0.000000    -0.023501 
x,y,z [Debye]:    -0.001084     0.000001    -0.059736 

 


           ************************************************************
           *        Program running with 18 parallel MPI-processes    *
           *              working on a common directory               *
           ************************************************************

-------------------------------------------------------------------------------
                               ORCA SCF HESSIAN
-------------------------------------------------------------------------------

                   --------- SHARK INITIALIZATION DONE ---------

Hessian of the Kohn-Sham DFT energy:
Kohn-Sham wavefunction type                      ... UKS
Hartree-Fock exchange scaling                    ...    0.196
Number of operators                              ...    2
Number of atoms                                  ...    4
Basis set dimensions                             ...  157
Integral neglect threshold                       ... 2.5e-11
Integral primitive cutoff                        ... 2.5e-12

Setting up DFT Hessian calculations              ... 

HESS GRID
---------

General Integration Accuracy     IntAcc      ... 4.629
Radial Grid Type                 RadialGrid  ... OptM3 with GC (2021)
Angular Grid (max. ang.)         AngularGrid ... 5 (Lebedev-434)
Angular grid pruning method      GridPruning ... 4 (adaptive)
Weight generation scheme         WeightScheme... Becke
Basis function cutoff            BFCut       ... 1.0000e-11
Integration weight cutoff        WCut        ... 1.0000e-14
Angular grids for H and He will be reduced by one unit
Partially contracted basis set               ... off
Rotationally invariant grid construction     ... off

Total number of grid points                  ...    39954
Total number of batches                      ...      625
Average number of points per batch           ...       63
Average number of grid points per atom       ...     9988

Building densities                               ... done   (      0.0 sec)
Calculating rho(r) on the grid                   ... done   (      0.1 sec)
Building xc-kernel on the grid                   ... done   (      0.1 sec)
                                                     done   (      0.6 sec)

Nuclear repulsion Hessian  (SHARK)               ... done   (      0.0 sec)

----------------------------------------------
Forming right-hand sides of CP-SCF equations     ...
----------------------------------------------
One electron integral derivatives  (SHARK)       ... done   (      0.0 sec)
Transforming the overlap derivative matrices     ... done   (      0.0 sec)
Making the Q(x) pseudodensities                  ... done   (      0.0 sec)
Adding the E*S(x)*S(y) terms to the Hessian      ... done   (      0.0 sec)
Calculating energy weighted overlap derivatives  ... done   (      0.0 sec)
Two electron integral derivatives (SHARK-RI)     ... done   (      2.5 sec)
Exchange-correlation integral derivatives        ... done   (      2.2 sec)
tr(F(y)Q(x)) contribution to the Hessian         ... done   (      0.0 sec)
Response fock operator R(S(x)) (SHARK-RIJCOSX)   ... done   (      0.9 sec)
XC Response fock operator R(S(x))                ... done   (      0.5 sec)
tr(F(y)S(x)) contribution to the Hessian         ... done   (      0.0 sec)
Transforming and finalizing RHSs                 ... done   (      0.0 sec)

----------------------------------------------
Solving the CP-SCF equations (RIJCOSX)           ...
----------------------------------------------
     CP-SCF ITERATION   0:   1.6471e-01 (   0.5 sec   0/ 12 done)
     CP-SCF ITERATION   1:   3.9069e-02 (   0.4 sec   0/ 12 done)
     CP-SCF ITERATION   2:   1.7346e-02 (   0.4 sec   0/ 12 done)
     CP-SCF ITERATION   3:   5.4947e-03 (   0.5 sec   0/ 12 done)
     CP-SCF ITERATION   4:   1.2026e-03 (   0.5 sec   0/ 12 done)
     CP-SCF ITERATION   5:   3.8795e-04 (   0.5 sec   2/ 12 done)
     CP-SCF ITERATION   6:   1.3289e-04 (   0.4 sec   8/ 12 done)
     CP-SCF ITERATION   7:   3.4439e-05 (   0.4 sec  12/ 12 done)
                    *** THE CP-SCF HAS CONVERGED ***

                                                 ... done   (      3.8 sec)
Forming perturbed density Hessian contributions  ... done   (      0.0 sec)
2nd integral derivative contribs (SHARK-RI)      ... done   (      6.3 sec)
Exchange-correlation Hessian                     ... done   (      0.9 sec)
Dispersion correction in the Hessian             ... done   (      0.1 sec)
Dipole derivatives                               ... (center of mass:  0.000012,  0.000000 -0.441603)done   (      0.1 sec)

Total SCF Hessian time: 0 days 0 hours 0 min 18 sec 

Writing the Hessian file to the disk             ... done


Maximum memory used throughout the entire SCFHESS-calculation: 143.4 MB

-----------------------
VIBRATIONAL FREQUENCIES
-----------------------

Scaling factor for frequencies =  1.000000000  (already applied!)

   0:         0.00 cm**-1
   1:         0.00 cm**-1
   2:         0.00 cm**-1
   3:         0.00 cm**-1
   4:         0.00 cm**-1
   5:         0.00 cm**-1
   6:       486.06 cm**-1
   7:       486.11 cm**-1
   8:       647.92 cm**-1
   9:      1031.01 cm**-1
  10:      1330.61 cm**-1
  11:      1331.63 cm**-1


------------
NORMAL MODES
------------

These modes are the Cartesian displacements weighted by the diagonal matrix
M(i,i)=1/sqrt(m[i]) where m[i] is the mass of the displaced atom
Thus, these vectors are normalized but *not* orthogonal

                  0          1          2          3          4          5    
      0       0.000000   0.000000   0.000000   0.000000   0.000000   0.000000
      1       0.000000   0.000000   0.000000   0.000000   0.000000   0.000000
      2       0.000000   0.000000   0.000000   0.000000   0.000000   0.000000
      3       0.000000   0.000000   0.000000   0.000000   0.000000   0.000000
      4       0.000000   0.000000   0.000000   0.000000   0.000000   0.000000
      5       0.000000   0.000000   0.000000   0.000000   0.000000   0.000000
      6       0.000000   0.000000   0.000000   0.000000   0.000000   0.000000
      7       0.000000   0.000000   0.000000   0.000000   0.000000   0.000000
      8       0.000000   0.000000   0.000000   0.000000   0.000000   0.000000
      9       0.000000   0.000000   0.000000   0.000000   0.000000   0.000000
     10       0.000000   0.000000   0.000000   0.000000   0.000000   0.000000
     11       0.000000   0.000000   0.000000   0.000000   0.000000   0.000000
                  6          7          8          9         10         11    
      0       0.000417  -0.337469   0.000083  -0.000826  -0.903308  -0.000196
      1       0.337505   0.000417   0.000000  -0.000000   0.000196  -0.903299
      2      -0.000000  -0.000135   0.735174   0.716028  -0.000464  -0.000000
      3       0.000578  -0.467446  -0.359337   0.373831   0.337020   0.000073
      4      -0.609432  -0.000753  -0.000000   0.000000  -0.000009   0.043419
      5       0.000039  -0.031315  -0.154902  -0.150957  -0.083811  -0.000018
      6      -0.466670   0.339825   0.179642  -0.186654   0.117064  -0.127225
      7       0.197451   0.466285  -0.311321   0.323701  -0.127526   0.263806
      8       0.027138   0.015734  -0.154947  -0.150867   0.042068  -0.072664
      9       0.465829   0.340977   0.179642  -0.186654   0.117009   0.127276
     10       0.198602  -0.465796   0.311321  -0.323700   0.127411   0.263862
     11      -0.027176   0.015667  -0.154947  -0.150867   0.042036   0.072682


-----------
IR SPECTRUM
-----------

 Mode   freq       eps      Int      T**2         TX        TY        TZ
       cm**-1   L/(mol*cm) km/mol    a.u.
----------------------------------------------------------------------------
  6:    486.06   0.000356    1.80  0.000228  ( 0.000019  0.015112 -0.000000)
  7:    486.11   0.000357    1.80  0.000229  (-0.015131  0.000019 -0.000008)
  8:    647.92   0.002367   11.96  0.001140  ( 0.000026 -0.000000  0.033763)
  9:   1031.01   0.004249   21.47  0.001286  (-0.000080 -0.000000  0.035862)
 10:   1330.61   0.073557  371.73  0.017251  (-0.131344  0.000028 -0.000073)
 11:   1331.63   0.073579  371.84  0.017243  (-0.000028 -0.131313 -0.000000)

* The epsilon (eps) is given for a Dirac delta lineshape.
** The dipole moment derivative (T) already includes vibrational overlap.

The first frequency considered to be a vibration is 6
The total number of vibrations considered is 6


--------------------------
THERMOCHEMISTRY AT 298.15K
--------------------------

Temperature         ... 298.15 K
Pressure            ... 1.00 atm
Total Mass          ... 69.00 AMU

Throughout the following assumptions are being made:
  (1) The electronic state is orbitally nondegenerate
      but the spin degeneracy is treated
  (2) There are no thermally accessible electronically excited states
  (3) Hindered rotations indicated by low frequency modes are not
      treated as such but are treated as vibrations and this may
      cause some error
  (4) All equations used are the standard statistical mechanics
      equations for an ideal gas
  (5) All vibrations are strictly harmonic

freq.     486.06  E(vib)   ...       0.15 
freq.     486.11  E(vib)   ...       0.15 
freq.     647.92  E(vib)   ...       0.08 
freq.    1031.01  E(vib)   ...       0.02 
freq.    1330.61  E(vib)   ...       0.01 
freq.    1331.63  E(vib)   ...       0.01 

------------
INNER ENERGY
------------

The inner energy is: U= E(el) + E(ZPE) + E(vib) + E(rot) + E(trans)
    E(el)   - is the total energy from the electronic structure calculation
              = E(kin-el) + E(nuc-el) + E(el-el) + E(nuc-nuc)
    E(ZPE)  - the the zero temperature vibrational energy from the frequency calculation
    E(vib)  - the the finite temperature correction to E(ZPE) due to population
              of excited vibrational states
    E(rot)  - is the rotational thermal energy
    E(trans)- is the translational thermal energy

Summary of contributions to the inner energy U:
Electronic energy                ...   -337.62627680 Eh
Zero point energy                ...      0.01210467 Eh       7.60 kcal/mol
Thermal vibrational correction   ...      0.00065707 Eh       0.41 kcal/mol
Thermal rotational correction    ...      0.00141627 Eh       0.89 kcal/mol
Thermal translational correction ...      0.00141627 Eh       0.89 kcal/mol
-----------------------------------------------------------------------
Total thermal energy                   -337.61068252 Eh


Summary of corrections to the electronic energy:
(perhaps to be used in another calculation)
Total thermal correction                  0.00348962 Eh       2.19 kcal/mol
Non-thermal (ZPE) correction              0.01210467 Eh       7.60 kcal/mol
-----------------------------------------------------------------------
Total correction                          0.01559429 Eh       9.79 kcal/mol


--------
ENTHALPY
--------

The enthalpy is H = U + kB*T
                kB is Boltzmann's constant
Total free energy                 ...   -337.61068252 Eh 
Thermal Enthalpy correction       ...      0.00094421 Eh       0.59 kcal/mol
-----------------------------------------------------------------------
Total Enthalpy                    ...   -337.60973831 Eh


Note: Rotational entropy computed according to Herzberg 
Infrared and Raman Spectra, Chapter V,1, Van Nostrand Reinhold, 1945 
Point Group:  Cs, Symmetry Number:   1  
Rotational constants in cm-1:     0.355512     0.355429     0.180741 

Vibrational entropy computed according to the QRRHO of S. Grimme
Chem.Eur.J. 2012 18 9955


-------
ENTROPY
-------

The entropy contributions are T*S = T*(S(el)+S(vib)+S(rot)+S(trans))
     S(el)   - electronic entropy
     S(vib)  - vibrational entropy
     S(rot)  - rotational entropy
     S(trans)- translational entropy
The entropies will be listed as multiplied by the temperature to get
units of energy

Electronic entropy                ...      0.00065446 Eh      0.41 kcal/mol
Vibrational entropy               ...      0.00090036 Eh      0.56 kcal/mol
Rotational entropy                ...      0.01129499 Eh      7.09 kcal/mol
Translational entropy             ...      0.01834582 Eh     11.51 kcal/mol
-----------------------------------------------------------------------
Final entropy term                ...      0.03119562 Eh     19.58 kcal/mol

In case the symmetry of your molecule has not been determined correctly
or in case you have a reason to use a different symmetry number we print 
out the resulting rotational entropy values for sn=1,12 :
 --------------------------------------------------------
|  sn= 1 | S(rot)=       0.01129499 Eh      7.09 kcal/mol|
|  sn= 2 | S(rot)=       0.01064053 Eh      6.68 kcal/mol|
|  sn= 3 | S(rot)=       0.01025770 Eh      6.44 kcal/mol|
|  sn= 4 | S(rot)=       0.00998608 Eh      6.27 kcal/mol|
|  sn= 5 | S(rot)=       0.00977539 Eh      6.13 kcal/mol|
|  sn= 6 | S(rot)=       0.00960324 Eh      6.03 kcal/mol|
|  sn= 7 | S(rot)=       0.00945770 Eh      5.93 kcal/mol|
|  sn= 8 | S(rot)=       0.00933162 Eh      5.86 kcal/mol|
|  sn= 9 | S(rot)=       0.00922041 Eh      5.79 kcal/mol|
|  sn=10 | S(rot)=       0.00912093 Eh      5.72 kcal/mol|
|  sn=11 | S(rot)=       0.00903094 Eh      5.67 kcal/mol|
|  sn=12 | S(rot)=       0.00894879 Eh      5.62 kcal/mol|
 --------------------------------------------------------


-------------------
GIBBS FREE ENERGY
-------------------

The Gibbs free energy is G = H - T*S

Total enthalpy                    ...   -337.60973831 Eh 
Total entropy correction          ...     -0.03119562 Eh    -19.58 kcal/mol
-----------------------------------------------------------------------
Final Gibbs free energy         ...   -337.64093393 Eh

For completeness - the Gibbs free energy minus the electronic energy
G-E(el)                           ...     -0.01465713 Eh     -9.20 kcal/mol


Timings for individual modules:

Sum of individual times         ...       85.636 sec (=   1.427 min)
GTO integral calculation        ...       11.172 sec (=   0.186 min)  13.0 %
SCF iterations                  ...       42.579 sec (=   0.710 min)  49.7 %
SCF Gradient evaluation         ...       10.659 sec (=   0.178 min)  12.4 %
Geometry relaxation             ...        0.177 sec (=   0.003 min)   0.2 %
Analytical frequency calculation...       21.050 sec (=   0.351 min)  24.6 %
                             ****ORCA TERMINATED NORMALLY****
TOTAL RUN TIME: 0 days 0 hours 1 minutes 36 seconds 854 msec

slurmID:    32260071
totalRuntime[s]:    96.891906836
