
                                 *****************
                                 * O   R   C   A *
                                 *****************

                                            #,                                       
                                            ###                                      
                                            ####                                     
                                            #####                                    
                                            ######                                   
                                           ########,                                 
                                     ,,################,,,,,                         
                               ,,#################################,,                 
                          ,,##########################################,,             
                       ,#########################################, ''#####,          
                    ,#############################################,,   '####,        
                  ,##################################################,,,,####,       
                ,###########''''           ''''###############################       
              ,#####''   ,,,,##########,,,,          '''####'''          '####       
            ,##' ,,,,###########################,,,                        '##       
           ' ,,###''''                  '''############,,,                           
         ,,##''                                '''############,,,,        ,,,,,,###''
      ,#''                                            '''#######################'''  
     '                                                          ''''####''''         
             ,#######,   #######,   ,#######,      ##                                
            ,#'     '#,  ##    ##  ,#'     '#,    #''#        ######   ,####,        
            ##       ##  ##   ,#'  ##            #'  '#       #        #'  '#        
            ##       ##  #######   ##           ,######,      #####,   #    #        
            '#,     ,#'  ##    ##  '#,     ,#' ,#      #,         ##   #,  ,#        
             '#######'   ##     ##  '#######'  #'      '#     #####' # '####'        



                  #######################################################
                  #                        -***-                        #
                  #          Department of theory and spectroscopy      #
                  #    Directorship and core code : Frank Neese         #
                  #        Max Planck Institute fuer Kohlenforschung    #
                  #                Kaiser Wilhelm Platz 1               #
                  #                 D-45470 Muelheim/Ruhr               #
                  #                      Germany                        #
                  #                                                     #
                  #                  All rights reserved                #
                  #                        -***-                        #
                  #######################################################


                         Program Version 5.0.4 -  RELEASE  -


 With contributions from (in alphabetic order):
   Daniel Aravena         : Magnetic Suceptibility
   Michael Atanasov       : Ab Initio Ligand Field Theory (pilot matlab implementation)
   Alexander A. Auer      : GIAO ZORA, VPT2 properties, NMR spectrum
   Ute Becker             : Parallelization
   Giovanni Bistoni       : ED, misc. LED, open-shell LED, HFLD
   Martin Brehm           : Molecular dynamics
   Dmytro Bykov           : SCF Hessian
   Vijay G. Chilkuri      : MRCI spin determinant printing, contributions to CSF-ICE
   Dipayan Datta          : RHF DLPNO-CCSD density
   Achintya Kumar Dutta   : EOM-CC, STEOM-CC
   Dmitry Ganyushin       : Spin-Orbit,Spin-Spin,Magnetic field MRCI
   Miquel Garcia          : C-PCM and meta-GGA Hessian, CC/C-PCM, Gaussian charge scheme
   Yang Guo               : DLPNO-NEVPT2, F12-NEVPT2, CIM, IAO-localization
   Andreas Hansen         : Spin unrestricted coupled pair/coupled cluster methods
   Benjamin Helmich-Paris : MC-RPA, TRAH-SCF, COSX integrals
   Lee Huntington         : MR-EOM, pCC
   Robert Izsak           : Overlap fitted RIJCOSX, COSX-SCS-MP3, EOM
   Marcus Kettner         : VPT2
   Christian Kollmar      : KDIIS, OOCD, Brueckner-CCSD(T), CCSD density, CASPT2, CASPT2-K
   Simone Kossmann        : Meta GGA functionals, TD-DFT gradient, OOMP2, MP2 Hessian
   Martin Krupicka        : Initial AUTO-CI
   Lucas Lang             : DCDCAS
   Marvin Lechner         : AUTO-CI (C++ implementation), FIC-MRCC
   Dagmar Lenk            : GEPOL surface, SMD
   Dimitrios Liakos       : Extrapolation schemes; Compound Job, initial MDCI parallelization
   Dimitrios Manganas     : Further ROCIS development; embedding schemes
   Dimitrios Pantazis     : SARC Basis sets
   Anastasios Papadopoulos: AUTO-CI, single reference methods and gradients
   Taras Petrenko         : DFT Hessian,TD-DFT gradient, ASA, ECA, R-Raman, ABS, FL, XAS/XES, NRVS
   Peter Pinski           : DLPNO-MP2, DLPNO-MP2 Gradient
   Christoph Reimann      : Effective Core Potentials
   Marius Retegan         : Local ZFS, SOC
   Christoph Riplinger    : Optimizer, TS searches, QM/MM, DLPNO-CCSD(T), (RO)-DLPNO pert. Triples
   Tobias Risthaus        : Range-separated hybrids, TD-DFT gradient, RPA, STAB
   Michael Roemelt        : Original ROCIS implementation
   Masaaki Saitow         : Open-shell DLPNO-CCSD energy and density
   Barbara Sandhoefer     : DKH picture change effects
   Avijit Sen             : IP-ROCIS
   Kantharuban Sivalingam : CASSCF convergence, NEVPT2, FIC-MRCI
   Bernardo de Souza      : ESD, SOC TD-DFT
   Georgi Stoychev        : AutoAux, RI-MP2 NMR, DLPNO-MP2 response
   Willem Van den Heuvel  : Paramagnetic NMR
   Boris Wezisla          : Elementary symmetry handling
   Frank Wennmohs         : Technical directorship


 We gratefully acknowledge several colleagues who have allowed us to
 interface, adapt or use parts of their codes:
   Stefan Grimme, W. Hujo, H. Kruse, P. Pracht,  : VdW corrections, initial TS optimization,
                  C. Bannwarth, S. Ehlert          DFT functionals, gCP, sTDA/sTD-DF
   Ed Valeev, F. Pavosevic, A. Kumar             : LibInt (2-el integral package), F12 methods
   Garnet Chan, S. Sharma, J. Yang, R. Olivares  : DMRG
   Ulf Ekstrom                                   : XCFun DFT Library
   Mihaly Kallay                                 : mrcc  (arbitrary order and MRCC methods)
   Jiri Pittner, Ondrej Demel                    : Mk-CCSD
   Frank Weinhold                                : gennbo (NPA and NBO analysis)
   Christopher J. Cramer and Donald G. Truhlar   : smd solvation model
   Lars Goerigk                                  : TD-DFT with DH, B97 family of functionals
   V. Asgeirsson, H. Jonsson                     : NEB implementation
   FAccTs GmbH                                   : IRC, NEB, NEB-TS, DLPNO-Multilevel, CI-OPT
                                                   MM, QMMM, 2- and 3-layer-ONIOM, Crystal-QMMM,
                                                   LR-CPCM, SF, NACMEs, symmetry and pop. for TD-DFT,
                                                   nearIR, NL-DFT gradient (VV10), updates on ESD,
                                                   ML-optimized integration grids
   S Lehtola, MJT Oliveira, MAL Marques          : LibXC Library
   Liviu Ungur et al                             : ANISO software


 Your calculation uses the libint2 library for the computation of 2-el integrals
 For citations please refer to: http://libint.valeyev.net

 Your ORCA version has been built with support for libXC version: 5.1.0
 For citations please refer to: https://tddft.org/programs/libxc/

 This ORCA versions uses:
   CBLAS   interface :  Fast vector & matrix operations
   LAPACKE interface :  Fast linear algebra routines
   SCALAPACK package :  Parallel linear algebra routines
   Shared memory     :  Shared parallel matrices
   BLAS/LAPACK       :  OpenBLAS 0.3.15  USE64BITINT DYNAMIC_ARCH NO_AFFINITY SkylakeX SINGLE_THREADED
        Core in use  :  SkylakeX
   Copyright (c) 2011-2014, The OpenBLAS Project


Your calculation utilizes the atom-pairwise dispersion correction
with the zero-damping scheme (D30)
Cite in your paper:
S.Grimme, J.Antony, S.Ehrlich and H.Krieg, J.Chem.Phys., 132, (2010), 154104 
   

XCFun DFT library Copyright 2009-2010 Ulf Ekstrom and contributors.
See http://admol.org/xcfun for more information.
This is free software; see the source code for copying conditions.
There is ABSOLUTELY NO WARRANTY; not even for MERCHANTABILITY or FITNESS FOR A PARTICULAR PURPOSE.
For details see the documentation.
Scientific users of this library should cite U. Ekstrom, L. Visscher, R. Bast, A. J. Thorvaldsen and K. Ruud;
J.Chem.Theor.Comp. 2010, DOI: 10.1021/ct100117s
XCFun Version 0.99 

================================================================================

----- Orbital basis set information -----
Your calculation utilizes the basis: def2-TZVPD
   F. Weigend and R. Ahlrichs, Phys. Chem. Chem. Phys. 7, 3297 (2005).
   D. Rappoport and F. Furche, J. Chem. Phys. 133 134105 (2010).

----- AuxJ basis set information -----
Your calculation utilizes the auxiliary basis: def2/J
   F. Weigend, Phys. Chem. Chem. Phys. 8, 1057 (2006).

================================================================================
                                        WARNINGS
                       Please study these warnings very carefully!
================================================================================


WARNING: Geometry Optimization
  ===> : Switching off AutoStart
         For restart on a previous wavefunction, please use MOREAD

INFO   : the flag for use of the SHARK integral package has been found!

================================================================================
                                       INPUT FILE
================================================================================
NAME = /beegfs/scratch/ispackman/PFAS_EPR_calcs/benchmark/JChemEd_CF3_radical/CH3_radical_95.0_degrees_IN-PROGRESS/CH3_radical_95.0_degrees.inp
|  1> ! UKS TightSCF wB97x-D3 def2-TZVPD xyzfile opt freq
|  2> 
|  3> # CH3 radical 95.0 degrees fixed
|  4> 
|  5> %maxcore 1000
|  6> %pal
|  7> nprocs 18
|  8> end
|  9> 
| 10> %geom Constraints
| 11>         { A * 0 * C }
| 12>     end
| 13> end
| 14> * xyz 0 2
| 15> C 0.00 0.00 0.00
| 16> H 0.9194413008 0.0000000000 -0.5665930589
| 17> H -0.4597206504 0.7962595238 -0.5665930589
| 18> H -0.4597206504 -0.7962595238 -0.5665930589
| 19> **                         ****END OF INPUT****
================================================================================

                       *****************************
                       * Geometry Optimization Run *
                       *****************************

Geometry optimization settings:
Update method            Update   .... BFGS
Choice of coordinates    CoordSys .... Z-matrix Internals
Initial Hessian          InHess   .... Almoef's Model

Convergence Tolerances:
Energy Change            TolE     ....  5.0000e-06 Eh
Max. Gradient            TolMAXG  ....  3.0000e-04 Eh/bohr
RMS Gradient             TolRMSG  ....  1.0000e-04 Eh/bohr
Max. Displacement        TolMAXD  ....  4.0000e-03 bohr
RMS Displacement         TolRMSD  ....  2.0000e-03 bohr
Strict Convergence                ....  False
------------------------------------------------------------------------------
                        ORCA OPTIMIZATION COORDINATE SETUP
------------------------------------------------------------------------------

The optimization will be done in new redundant internal coordinates
Making redundant internal coordinates   ...  (new redundants) done
Evaluating the initial hessian          ...  (Almloef) done
Evaluating the coordinates              ...  done
Calculating the B-matrix                .... done
Calculating the G-matrix                .... done
Diagonalizing the G-matrix              .... done
Imposing constraints:
 Iter   0:  RMS(Cart)=    0.0000000000 RMS(Int)=    0.0000000000
CONVERGED
Will constrain atom 0 coordinate 1 
Will constrain atom 0 coordinate 2 
Will constrain atom 1 coordinate 2 
The first mode is                       ....    1
The number of degrees of freedom        ....    6
Storing new coordinates                 .... done

    -----------------------------------------------------------------
                    Redundant Internal Coordinates


    -----------------------------------------------------------------
         Definition                    Initial Value    Approx d2E/dq
    -----------------------------------------------------------------
      1. B(H   1,C   0)                  1.0800         0.373575   
      2. B(H   2,C   0)                  1.0800         0.373575   
      3. B(H   3,C   0)                  1.0800         0.373575   
      4. A(H   2,C   0,H   3)           95.0000         0.294224 C 
      5. A(H   1,C   0,H   2)           95.0000         0.294224 C 
      6. A(H   1,C   0,H   3)           95.0000         0.294224 C 
      7. I(H   1,H   3,H   2,C   0)     82.5878         0.002506   
    -----------------------------------------------------------------

Number of atoms                         .... 4
Number of degrees of freedom            .... 7

         *************************************************************
         *                GEOMETRY OPTIMIZATION CYCLE   1            *
         *************************************************************
---------------------------------
CARTESIAN COORDINATES (ANGSTROEM)
---------------------------------
  C      0.000000    0.000000    0.000000
  H      0.919441    0.000000   -0.566593
  H     -0.459721    0.796260   -0.566593
  H     -0.459721   -0.796260   -0.566593

----------------------------
CARTESIAN COORDINATES (A.U.)
----------------------------
  NO LB      ZA    FRAG     MASS         X           Y           Z
   0 C     6.0000    0    12.011    0.000000    0.000000    0.000000
   1 H     1.0000    0     1.008    1.737492    0.000000   -1.070706
   2 H     1.0000    0     1.008   -0.868746    1.504712   -1.070706
   3 H     1.0000    0     1.008   -0.868746   -1.504712   -1.070706

--------------------------------
INTERNAL COORDINATES (ANGSTROEM)
--------------------------------
 C      0   0   0     0.000000000000     0.00000000     0.00000000
 H      1   0   0     1.080000000005     0.00000000     0.00000000
 H      1   2   0     1.080000000019    95.00000000     0.00000000
 H      1   2   3     1.080000000019    95.00000000    95.47878174

---------------------------
INTERNAL COORDINATES (A.U.)
---------------------------
 C      0   0   0     0.000000000000     0.00000000     0.00000000
 H      1   0   0     2.040904224644     0.00000000     0.00000000
 H      1   2   0     2.040904224670    95.00000000     0.00000000
 H      1   2   3     2.040904224670    95.00000000    95.47878174

---------------------
BASIS SET INFORMATION
---------------------
There are 2 groups of distinct atoms

 Group   1 Type C   : 12s6p3d1f contracted to 6s3p3d1f pattern {621111/411/111/1}
 Group   2 Type H   : 5s2p contracted to 3s2p pattern {311/11}

Atom   0C    basis set group =>   1
Atom   1H    basis set group =>   2
Atom   2H    basis set group =>   2
Atom   3H    basis set group =>   2
---------------------------------
AUXILIARY/J BASIS SET INFORMATION
---------------------------------
There are 2 groups of distinct atoms

 Group   1 Type C   : 12s5p4d2f1g contracted to 6s4p3d1f1g pattern {711111/2111/211/2/1}
 Group   2 Type H   : 5s2p1d contracted to 3s1p1d pattern {311/2/1}

Atom   0C    basis set group =>   1
Atom   1H    basis set group =>   2
Atom   2H    basis set group =>   2
Atom   3H    basis set group =>   2


           ************************************************************
           *        Program running with 18 parallel MPI-processes    *
           *              working on a common directory               *
           ************************************************************
------------------------------------------------------------------------------
                           ORCA GTO INTEGRAL CALCULATION
                           -- RI-GTO INTEGRALS CHOSEN --
------------------------------------------------------------------------------
------------------------------------------------------------------------------
                   ___                                                        
                  /   \      - P O W E R E D   B Y -                         
                 /     \                                                     
                 |  |  |   _    _      __       _____    __    __             
                 |  |  |  | |  | |    /  \     |  _  \  |  |  /  |          
                  \  \/   | |  | |   /    \    | | | |  |  | /  /          
                 / \  \   | |__| |  /  /\  \   | |_| |  |  |/  /          
                |  |  |   |  __  | /  /__\  \  |    /   |      \           
                |  |  |   | |  | | |   __   |  |    \   |  |\   \          
                \     /   | |  | | |  |  |  |  | |\  \  |  | \   \       
                 \___/    |_|  |_| |__|  |__|  |_| \__\ |__|  \__/        
                                                                              
                      - O R C A' S   B I G   F R I E N D -                    
                                      &                                       
                       - I N T E G R A L  F E E D E R -                       
                                                                              
 v1 FN, 2020, v2 2021                                                         
------------------------------------------------------------------------------


Reading SHARK input file /beegfs/scratch/ispackman/PFAS_EPR_calcs/benchmark/JChemEd_CF3_radical/CH3_radical_95.0_degrees_IN-PROGRESS/CH3_radical_95.0_degrees.SHARKINP.tmp ... ok
----------------------
SHARK INTEGRAL PACKAGE
----------------------

Number of atoms                             ...      4
Number of basis functions                   ...     64
Number of shells                            ...     28
Maximum angular momentum                    ...      3
Integral batch strategy                     ... SHARK/LIBINT Hybrid
RI-J (if used) integral strategy            ... SPLIT-RIJ (Revised 2003 algorithm where possible)
Printlevel                                  ...      1
Contraction scheme used                     ... SEGMENTED contraction
Coulomb Range Separation                    ... NOT USED
Exchange Range Separation                   ... Long Range
   Mu parameter                             ...  0.250000
   Scaling (regular/separated)              ...  0.195728  0.804272
Finite Nucleus Model                        ... NOT USED
Auxiliary Coulomb fitting basis             ... AVAILABLE
   # of basis functions in Aux-J            ...     82
   # of shells in Aux-J                     ...     30
   Maximum angular momentum in Aux-J        ...      4
Auxiliary J/K fitting basis                 ... NOT available
Auxiliary Correlation fitting basis         ... NOT available
Auxiliary 'external' fitting basis          ... NOT available
Integral threshold                          ...     2.500000e-11
Primitive cut-off                           ...     2.500000e-12
Primitive pair pre-selection threshold      ...     2.500000e-12

Calculating pre-screening integrals         ... done (  0.0 sec) Dimension = 28
Organizing shell pair data                  ... done (  0.0 sec)
Shell pair information
Total number of shell pairs                 ...       406
Shell pairs after pre-screening             ...       406
Total number of primitive shell pairs       ...       977
Primitive shell pairs kept                  ...       947
          la=0 lb=0:    120 shell pairs
          la=1 lb=0:    135 shell pairs
          la=1 lb=1:     45 shell pairs
          la=2 lb=0:     45 shell pairs
          la=2 lb=1:     27 shell pairs
          la=2 lb=2:      6 shell pairs
          la=3 lb=0:     15 shell pairs
          la=3 lb=1:      9 shell pairs
          la=3 lb=2:      3 shell pairs
          la=3 lb=3:      1 shell pairs

Calculating one electron integrals          ... done (  0.0 sec)
Calculating RI/J V-Matrix + Cholesky decomp.... done (  0.0 sec)
Calculating Nuclear repulsion               ... done (  0.0 sec) ENN=      9.816488356098 Eh

SHARK setup successfully completed in   0.2 seconds

Maximum memory used throughout the entire GTOINT-calculation: 14.0 MB


           ************************************************************
           *        Program running with 18 parallel MPI-processes    *
           *              working on a common directory               *
           ************************************************************
-------------------------------------------------------------------------------
                                 ORCA SCF
-------------------------------------------------------------------------------

------------
SCF SETTINGS
------------
Hamiltonian:
 Density Functional     Method          .... DFT(GTOs)
 Exchange Functional    Exchange        .... WB97X-D3
 Correlation Functional Correlation     .... WB97X-D3
 Gradients option       PostSCFGGA      .... off
 Hybrid DFT is turned on
   Fraction HF Exchange ScalHFX         ....  0.195728
   Scaling of DF-GGA-X  ScalDFX         ....  0.000000
   Scaling of DF-GGA-C  ScalDFC         ....  1.000000
   Scaling of DF-LDA-C  ScalLDAC        ....  1.000000
   Perturbative correction              ....  0.000000
   Density functional embedding theory  .... OFF
 Long-range corrected/Screened/Range-Separated Hybrid DFT is turned on
   Amount of maximum screened exact exchange              ....  0.804272
   Range separation parameter mu (erf(mu*r12)/r12)        ....  0.250000
 RI-approximation to the Coulomb term is turned on
   Number of AuxJ basis functions       .... 82
   RIJ-COSX (HFX calculated with COS-X)).... on


General Settings:
 Integral files         IntName         .... /beegfs/scratch/ispackman/PFAS_EPR_calcs/benchmark/JChemEd_CF3_radical/CH3_radical_95.0_degrees_IN-PROGRESS/CH3_radical_95.0_degrees
 Hartree-Fock type      HFTyp           .... UHF
 Total Charge           Charge          ....    0
 Multiplicity           Mult            ....    2
 Number of Electrons    NEL             ....    9
 Basis Dimension        Dim             ....   64
 Nuclear Repulsion      ENuc            ....      9.8164883561 Eh

Convergence Acceleration:
 DIIS                   CNVDIIS         .... on
   Start iteration      DIISMaxIt       ....    12
   Startup error        DIISStart       ....  0.200000
   # of expansion vecs  DIISMaxEq       ....     5
   Bias factor          DIISBfac        ....   1.050
   Max. coefficient     DIISMaxC        ....  10.000
 Trust-Rad. Augm. Hess. CNVTRAH         .... auto
   Auto Start mean grad. ratio tolernc. ....  1.125000
   Auto Start start iteration           ....    20
   Auto Start num. interpolation iter.  ....    10
   Max. Number of Micro iterations      ....    16
   Max. Number of Macro iterations      .... Maxiter - #DIIS iter
   Number of Davidson start vectors     ....     2
   Converg. threshold I  (grad. norm)   ....   1.000e-05
   Converg. threshold II (energy diff.) ....   1.000e-08
   Grad. Scal. Fac. for Micro threshold ....   0.100
   Minimum threshold for Micro iter.    ....   0.010
   NR start threshold (gradient norm)   ....   0.001
   Initial trust radius                 ....   0.400
   Minimum AH scaling param. (alpha)    ....   1.000
   Maximum AH scaling param. (alpha)    .... 1000.000
   Orbital update algorithm             .... Taylor
   White noise on init. David. guess    .... on
   Maximum white noise                  ....   0.010
   Quad. conv. algorithm                .... NR
 SOSCF                  CNVSOSCF        .... off
 Level Shifting         CNVShift        .... on
   Level shift para.    LevelShift      ....    0.2500
   Turn off err/grad.   ShiftErr        ....    0.0010
 Zerner damping         CNVZerner       .... off
 Static damping         CNVDamp         .... on
   Fraction old density DampFac         ....    0.7000
   Max. Damping (<1)    DampMax         ....    0.9800
   Min. Damping (>=0)   DampMin         ....    0.0000
   Turn off err/grad.   DampErr         ....    0.1000
 Fernandez-Rico         CNVRico         .... off

SCF Procedure:
 Maximum # iterations   MaxIter         ....   125
 SCF integral mode      SCFMode         .... Direct
   Integral package                     .... SHARK and LIBINT hybrid scheme
 Reset frequency        DirectResetFreq ....    20
 Integral Threshold     Thresh          ....  2.500e-11 Eh
 Primitive CutOff       TCut            ....  2.500e-12 Eh

Convergence Tolerance:
 Convergence Check Mode ConvCheckMode   .... Total+1el-Energy
 Convergence forced     ConvForced      .... 0
 Energy Change          TolE            ....  1.000e-08 Eh
 1-El. energy change                    ....  1.000e-05 Eh
 DIIS Error             TolErr          ....  5.000e-07


Diagonalization of the overlap matrix:
Smallest eigenvalue                        ... 3.372e-05
Time for diagonalization                   ...    0.002 sec
Threshold for overlap eigenvalues          ... 1.000e-08
Number of eigenvalues below threshold      ... 0
Time for construction of square roots      ...    0.015 sec
Total time needed                          ...    0.018 sec

Time for model grid setup =    0.037 sec

------------------------------
INITIAL GUESS: MODEL POTENTIAL
------------------------------
Loading Hartree-Fock densities                     ... done
Calculating cut-offs                               ... done
Initializing the effective Hamiltonian             ... done
Setting up the integral package (SHARK)            ... done
Starting the Coulomb interaction                   ... done (   0.1 sec)
Reading the grid                                   ... done
Mapping shells                                     ... done
Starting the XC term evaluation                    ... done (   0.0 sec)
  promolecular density results
     # of electrons  =      8.997982955
     EX              =     -5.938893037
     EC              =     -0.260943848
     EX+EC           =     -6.199836885
Transforming the Hamiltonian                       ... done (   0.0 sec)
Diagonalizing the Hamiltonian                      ... done (   0.0 sec)
Back transforming the eigenvectors                 ... done (   0.0 sec)
Now organizing SCF variables                       ... done
                      ------------------
                      INITIAL GUESS DONE (   0.1 sec)
                      ------------------
-------------------
DFT GRID GENERATION
-------------------

General Integration Accuracy     IntAcc      ... 4.388
Radial Grid Type                 RadialGrid  ... OptM3 with GC (2021)
Angular Grid (max. ang.)         AngularGrid ... 4 (Lebedev-302)
Angular grid pruning method      GridPruning ... 4 (adaptive)
Weight generation scheme         WeightScheme... Becke
Basis function cutoff            BFCut       ... 1.0000e-11
Integration weight cutoff        WCut        ... 1.0000e-14
Angular grids for H and He will be reduced by one unit
Partially contracted basis set               ... off
Rotationally invariant grid construction     ... off

Total number of grid points                  ...    17034
Total number of batches                      ...      268
Average number of points per batch           ...       63
Average number of grid points per atom       ...     4258
Time for grid setup =    0.085 sec

--------------------
COSX GRID GENERATION
--------------------

GRIDX 1
-------
General Integration Accuracy     IntAcc      ... 3.816
Radial Grid Type                 RadialGrid  ... OptM3 with GC (2021)
Angular Grid (max. ang.)         AngularGrid ... 1 (Lebedev-50)
Angular grid pruning method      GridPruning ... 4 (adaptive)
Weight generation scheme         WeightScheme... Becke
Basis function cutoff            BFCut       ... 1.0000e-11
Integration weight cutoff        WCut        ... 1.0000e-14
Angular grids for H and He will be reduced by one unit
Partially contracted basis set               ... on
Rotationally invariant grid construction     ... off

Total number of grid points                  ...     2144
Total number of batches                      ...       36
Average number of points per batch           ...       59
Average number of grid points per atom       ...      536
UseSFitting                                  ... on

GRIDX 2
-------
General Integration Accuracy     IntAcc      ... 4.020
Radial Grid Type                 RadialGrid  ... OptM3 with GC (2021)
Angular Grid (max. ang.)         AngularGrid ... 2 (Lebedev-110)
Angular grid pruning method      GridPruning ... 4 (adaptive)
Weight generation scheme         WeightScheme... Becke
Basis function cutoff            BFCut       ... 1.0000e-11
Integration weight cutoff        WCut        ... 1.0000e-14
Angular grids for H and He will be reduced by one unit
Partially contracted basis set               ... on
Rotationally invariant grid construction     ... off

Total number of grid points                  ...     5055
Total number of batches                      ...       80
Average number of points per batch           ...       63
Average number of grid points per atom       ...     1264
UseSFitting                                  ... on

GRIDX 3
-------
General Integration Accuracy     IntAcc      ... 4.338
Radial Grid Type                 RadialGrid  ... OptM3 with GC (2021)
Angular Grid (max. ang.)         AngularGrid ... 3 (Lebedev-194)
Angular grid pruning method      GridPruning ... 4 (adaptive)
Weight generation scheme         WeightScheme... Becke
Basis function cutoff            BFCut       ... 1.0000e-11
Integration weight cutoff        WCut        ... 1.0000e-14
Angular grids for H and He will be reduced by one unit
Partially contracted basis set               ... on
Rotationally invariant grid construction     ... off

Total number of grid points                  ...    11716
Total number of batches                      ...      185
Average number of points per batch           ...       63
Average number of grid points per atom       ...     2929
UseSFitting                                  ... on

Time for X-Grid setup             =    0.245 sec

--------------
SCF ITERATIONS
--------------
ITER       Energy         Delta-E        Max-DP      RMS-DP      [F,P]     Damp
               ***  Starting incremental Fock matrix formation  ***
  0    -39.7565256977   0.000000000000 0.07026114  0.00131098  0.0749701 0.7000
  1    -39.7703057953  -0.013780097628 0.06272997  0.00113807  0.0483051 0.7000
                               ***Turning on DIIS***
  2    -39.7781843119  -0.007878516568 0.12678781  0.00241899  0.0280889 0.0000
  3    -39.7920733181  -0.013889006222 0.05075577  0.00089738  0.0190965 0.0000
  4    -39.7935642108  -0.001490892713 0.01542791  0.00026334  0.0031843 0.0000
  5    -39.7936324036  -0.000068192755 0.01388003  0.00022581  0.0016944 0.0000
  6    -39.7936566084  -0.000024204867 0.01509219  0.00023475  0.0006377 0.0000
               *** Restarting incremental Fock matrix formation ***
                                   *** Resetting DIIS ***
  7    -39.7936617884  -0.000005179927 0.00120287  0.00001874  0.0000871 0.0000
  8    -39.7936619726  -0.000000184269 0.00084094  0.00001315  0.0000481 0.0000
  9    -39.7936620332  -0.000000060599 0.00001815  0.00000085  0.0000206 0.0000
 10    -39.7936620370  -0.000000003797 0.00001191  0.00000038  0.0000076 0.0000
                 **** Energy Check signals convergence ****

               *****************************************************
               *                     SUCCESS                       *
               *           SCF CONVERGED AFTER  11 CYCLES          *
               *****************************************************

Old exchange energy                            =     -2.172653052 Eh
New exchange energy                            =     -2.172656388 Eh
Exchange energy change after final integration =     -0.000003337 Eh
Total energy after final integration           =    -39.793665374 Eh
Final COS-X integration done in                =     0.132 sec

----------------
TOTAL SCF ENERGY
----------------

Total Energy       :          -39.79366537 Eh           -1082.84069 eV

Components:
Nuclear Repulsion  :            9.81648836 Eh             267.12023 eV
Electronic Energy  :          -49.61015373 Eh           -1349.96091 eV
One Electron Energy:          -71.84210142 Eh           -1954.92297 eV
Two Electron Energy:           22.23194769 Eh             604.96205 eV
Max COSX asymmetry :            0.00000012 Eh               0.00000 eV

Virial components:
Potential Energy   :          -79.46394529 Eh           -2162.32388 eV
Kinetic Energy     :           39.67027991 Eh            1079.48320 eV
Virial Ratio       :            2.00311027


DFT components:
N(Alpha)           :        4.999997732523 electrons
N(Beta)            :        4.000000220148 electrons
N(Total)           :        8.999997952671 electrons
E(XC)              :       -4.316589566844 Eh       
DFET-embed. en.    :        0.000000000000 Eh       

---------------
SCF CONVERGENCE
---------------

  Last Energy change         ...   -3.4201e-10  Tolerance :   1.0000e-08
  Last MAX-Density change    ...    0.0000e+00  Tolerance :   1.0000e-07
  Last RMS-Density change    ...    0.0000e+00  Tolerance :   5.0000e-09
  Last DIIS Error            ...    1.3686e-06  Tolerance :   5.0000e-07

             **** THE GBW FILE WAS UPDATED (/beegfs/scratch/ispackman/PFAS_EPR_calcs/benchmark/JChemEd_CF3_radical/CH3_radical_95.0_degrees_IN-PROGRESS/CH3_radical_95.0_degrees.gbw) ****
             **** DENSITY /beegfs/scratch/ispackman/PFAS_EPR_calcs/benchmark/JChemEd_CF3_radical/CH3_radical_95.0_degrees_IN-PROGRESS/CH3_radical_95.0_degrees.scfp WAS UPDATED ****
             **** ENERGY FILE WAS UPDATED (/beegfs/scratch/ispackman/PFAS_EPR_calcs/benchmark/JChemEd_CF3_radical/CH3_radical_95.0_degrees_IN-PROGRESS/CH3_radical_95.0_degrees.en.tmp) ****
----------------------
UHF SPIN CONTAMINATION
----------------------

Warning: in a DFT calculation there is little theoretical justification to 
         calculate <S**2> as in Hartree-Fock theory. We will do it anyways
         but you should keep in mind that the values have only limited relevance

Expectation value of <S**2>     :     0.753251
Ideal value S*(S+1) for S=0.5   :     0.750000
Deviation                       :     0.003251

             **** THE GBW FILE WAS UPDATED (/beegfs/scratch/ispackman/PFAS_EPR_calcs/benchmark/JChemEd_CF3_radical/CH3_radical_95.0_degrees_IN-PROGRESS/CH3_radical_95.0_degrees.gbw) ****
             **** DENSITY /beegfs/scratch/ispackman/PFAS_EPR_calcs/benchmark/JChemEd_CF3_radical/CH3_radical_95.0_degrees_IN-PROGRESS/CH3_radical_95.0_degrees.scfp WAS UPDATED ****
----------------
ORBITAL ENERGIES
----------------
                 SPIN UP ORBITALS
  NO   OCC          E(Eh)            E(eV) 
   0   1.0000     -10.297514      -280.2096 
   1   1.0000      -0.827002       -22.5039 
   2   1.0000      -0.486672       -13.2430 
   3   1.0000      -0.486663       -13.2428 
   4   1.0000      -0.400776       -10.9057 
   5   0.0000       0.074148         2.0177 
   6   0.0000       0.161523         4.3953 
   7   0.0000       0.161530         4.3954 
   8   0.0000       0.167512         4.5582 
   9   0.0000       0.193562         5.2671 
  10   0.0000       0.193564         5.2672 
  11   0.0000       0.241943         6.5836 
  12   0.0000       0.252962         6.8834 
  13   0.0000       0.252970         6.8837 
  14   0.0000       0.315103         8.5744 
  15   0.0000       0.348460         9.4821 
  16   0.0000       0.348464         9.4822 
  17   0.0000       0.348944         9.4953 
  18   0.0000       0.382632        10.4120 
  19   0.0000       0.382741        10.4149 
  20   0.0000       0.382746        10.4150 
  21   0.0000       0.393803        10.7159 
  22   0.0000       0.393813        10.7162 
  23   0.0000       0.527545        14.3552 
  24   0.0000       0.563588        15.3360 
  25   0.0000       0.563596        15.3362 
  26   0.0000       0.685989        18.6667 
  27   0.0000       0.785501        21.3746 
  28   0.0000       0.785682        21.3795 
  29   0.0000       0.785689        21.3797 
  30   0.0000       0.867244        23.5989 
  31   0.0000       0.867263        23.5994 
  32   0.0000       0.950378        25.8611 
  33   0.0000       1.162063        31.6213 
  34   0.0000       1.162096        31.6222 
  35   0.0000       1.645967        44.7890 
  36   0.0000       1.749556        47.6078 
  37   0.0000       1.749566        47.6081 
  38   0.0000       1.808726        49.2179 
  39   0.0000       1.842779        50.1446 
  40   0.0000       1.939013        52.7632 
  41   0.0000       1.939056        52.7644 
  42   0.0000       2.183361        59.4123 
  43   0.0000       2.183368        59.4125 
  44   0.0000       2.213417        60.2301 
  45   0.0000       2.560086        69.6635 
  46   0.0000       2.640094        71.8406 
  47   0.0000       2.640228        71.8442 
  48   0.0000       2.733245        74.3754 
  49   0.0000       2.733295        74.3767 
  50   0.0000       2.762290        75.1657 
  51   0.0000       3.141672        85.4892 
  52   0.0000       3.154002        85.8248 
  53   0.0000       3.154111        85.8277 
  54   0.0000       3.235458        88.0413 
  55   0.0000       3.297820        89.7382 
  56   0.0000       3.367314        91.6293 
  57   0.0000       3.367374        91.6309 
  58   0.0000       3.729293       101.4792 
  59   0.0000       3.729330       101.4802 
  60   0.0000       4.247112       115.5698 
  61   0.0000       4.492157       122.2378 
  62   0.0000       4.492169       122.2381 
  63   0.0000      22.178816       603.5163 

                 SPIN DOWN ORBITALS
  NO   OCC          E(Eh)            E(eV) 
   0   1.0000     -10.285520      -279.8832 
   1   1.0000      -0.793399       -21.5895 
   2   1.0000      -0.470585       -12.8053 
   3   1.0000      -0.470576       -12.8050 
   4   0.0000      -0.045132        -1.2281 
   5   0.0000       0.082175         2.2361 
   6   0.0000       0.166723         4.5368 
   7   0.0000       0.166725         4.5368 
   8   0.0000       0.201524         5.4837 
   9   0.0000       0.201526         5.4838 
  10   0.0000       0.202285         5.5045 
  11   0.0000       0.256291         6.9740 
  12   0.0000       0.256295         6.9741 
  13   0.0000       0.256565         6.9815 
  14   0.0000       0.321942         8.7605 
  15   0.0000       0.365770         9.9531 
  16   0.0000       0.365778         9.9533 
  17   0.0000       0.367498        10.0001 
  18   0.0000       0.382401        10.4057 
  19   0.0000       0.389534        10.5998 
  20   0.0000       0.389538        10.5999 
  21   0.0000       0.401802        10.9336 
  22   0.0000       0.401803        10.9336 
  23   0.0000       0.566010        15.4019 
  24   0.0000       0.568075        15.4581 
  25   0.0000       0.568078        15.4582 
  26   0.0000       0.694262        18.8918 
  27   0.0000       0.792599        21.5677 
  28   0.0000       0.798810        21.7367 
  29   0.0000       0.798827        21.7372 
  30   0.0000       0.885961        24.1082 
  31   0.0000       0.885998        24.1092 
  32   0.0000       0.967178        26.3183 
  33   0.0000       1.173659        31.9369 
  34   0.0000       1.173662        31.9370 
  35   0.0000       1.717068        46.7238 
  36   0.0000       1.759877        47.8887 
  37   0.0000       1.759901        47.8893 
  38   0.0000       1.810137        49.2563 
  39   0.0000       1.856304        50.5126 
  40   0.0000       1.953909        53.1686 
  41   0.0000       1.953910        53.1686 
  42   0.0000       2.193307        59.6829 
  43   0.0000       2.193325        59.6834 
  44   0.0000       2.217034        60.3286 
  45   0.0000       2.574611        70.0587 
  46   0.0000       2.648784        72.0771 
  47   0.0000       2.648809        72.0778 
  48   0.0000       2.759344        75.0856 
  49   0.0000       2.759374        75.0864 
  50   0.0000       2.784842        75.7794 
  51   0.0000       3.196182        86.9725 
  52   0.0000       3.200312        87.0849 
  53   0.0000       3.200397        87.0872 
  54   0.0000       3.258530        88.6691 
  55   0.0000       3.314552        90.1935 
  56   0.0000       3.405304        92.6630 
  57   0.0000       3.405328        92.6637 
  58   0.0000       3.774264       102.7029 
  59   0.0000       3.774309       102.7042 
  60   0.0000       4.269730       116.1853 
  61   0.0000       4.514860       122.8556 
  62   0.0000       4.514960       122.8583 
  63   0.0000      22.198893       604.0626 

                    ********************************
                    * MULLIKEN POPULATION ANALYSIS *
                    ********************************

--------------------------------------------
MULLIKEN ATOMIC CHARGES AND SPIN POPULATIONS
--------------------------------------------
   0 C :   -0.693413    0.890847
   1 H :    0.230858    0.036443
   2 H :    0.231278    0.036355
   3 H :    0.231277    0.036355
Sum of atomic charges         :    0.0000000
Sum of atomic spin populations:    1.0000000

-----------------------------------------------------
MULLIKEN REDUCED ORBITAL CHARGES AND SPIN POPULATIONS
-----------------------------------------------------
CHARGE
  0 C s       :     3.303551  s :     3.303551
      pz      :     0.970376  p :     3.332314
      px      :     1.180964
      py      :     1.180973
      dz2     :     0.000186  d :     0.057005
      dxz     :     0.021300
      dyz     :     0.021302
      dx2y2   :     0.007103
      dxy     :     0.007115
      f0      :     0.000219  f :     0.000543
      f+1     :     0.000071
      f-1     :     0.000070
      f+2     :    -0.000040
      f-2     :    -0.000038
      f+3     :     0.000261
      f-3     :     0.000000
  1 H s       :     0.728584  s :     0.728584
      pz      :     0.022467  p :     0.040558
      px      :     0.011402
      py      :     0.006689
  2 H s       :     0.728282  s :     0.728282
      pz      :     0.022443  p :     0.040440
      px      :     0.007829
      py      :     0.010168
  3 H s       :     0.728283  s :     0.728283
      pz      :     0.022443  p :     0.040440
      px      :     0.007829
      py      :     0.010168

SPIN
  0 C s       :     0.038846  s :     0.038846
      pz      :     0.853788  p :     0.864367
      px      :     0.005236
      py      :     0.005343
      dz2     :    -0.000046  d :    -0.012021
      dxz     :    -0.005515
      dyz     :    -0.005514
      dx2y2   :    -0.000473
      dxy     :    -0.000473
      f0      :    -0.000464  f :    -0.000345
      f+1     :     0.000119
      f-1     :     0.000118
      f+2     :    -0.000012
      f-2     :    -0.000012
      f+3     :    -0.000094
      f-3     :    -0.000000
  1 H s       :     0.015470  s :     0.015470
      pz      :     0.019071  p :     0.020973
      px      :    -0.000849
      py      :     0.002751
  2 H s       :     0.015415  s :     0.015415
      pz      :     0.019041  p :     0.020940
      px      :     0.001843
      py      :     0.000056
  3 H s       :     0.015415  s :     0.015415
      pz      :     0.019041  p :     0.020940
      px      :     0.001843
      py      :     0.000056


                     *******************************
                     * LOEWDIN POPULATION ANALYSIS *
                     *******************************

-------------------------------------------
LOEWDIN ATOMIC CHARGES AND SPIN POPULATIONS
-------------------------------------------
   0 C :    0.053891    0.838047
   1 H :   -0.017978    0.053988
   2 H :   -0.017957    0.053983
   3 H :   -0.017957    0.053983

----------------------------------------------------
LOEWDIN REDUCED ORBITAL CHARGES AND SPIN POPULATIONS
----------------------------------------------------
CHARGE
  0 C s       :     2.900424  s :     2.900424
      pz      :     0.762327  p :     2.911289
      px      :     1.074485
      py      :     1.074477
      dz2     :     0.002092  d :     0.122369
      dxz     :     0.035203
      dyz     :     0.035204
      dx2y2   :     0.024932
      dxy     :     0.024938
      f0      :     0.001370  f :     0.012026
      f+1     :     0.000408
      f-1     :     0.000407
      f+2     :     0.003962
      f-2     :     0.003963
      f+3     :     0.001916
      f-3     :     0.000000
  1 H s       :     0.742833  s :     0.742833
      pz      :     0.072866  p :     0.275146
      px      :     0.121082
      py      :     0.081198
  2 H s       :     0.742827  s :     0.742827
      pz      :     0.072869  p :     0.275130
      px      :     0.091160
      py      :     0.111101
  3 H s       :     0.742827  s :     0.742827
      pz      :     0.072869  p :     0.275130
      px      :     0.091160
      py      :     0.111101

SPIN
  0 C s       :     0.136308  s :     0.136308
      pz      :     0.668753  p :     0.713604
      px      :     0.022424
      py      :     0.022427
      dz2     :     0.000994  d :    -0.011788
      dxz     :    -0.004923
      dyz     :    -0.004927
      dx2y2   :    -0.001466
      dxy     :    -0.001466
      f0      :    -0.000165  f :    -0.000076
      f+1     :     0.000126
      f-1     :     0.000126
      f+2     :    -0.000226
      f-2     :    -0.000226
      f+3     :     0.000288
      f-3     :    -0.000000
  1 H s       :     0.000716  s :     0.000716
      pz      :     0.051568  p :     0.053272
      px      :     0.002851
      py      :    -0.001147
  2 H s       :     0.000716  s :     0.000716
      pz      :     0.051559  p :     0.053266
      px      :    -0.000149
      py      :     0.001856
  3 H s       :     0.000717  s :     0.000717
      pz      :     0.051559  p :     0.053266
      px      :    -0.000149
      py      :     0.001856


                      *****************************
                      * MAYER POPULATION ANALYSIS *
                      *****************************

  NA   - Mulliken gross atomic population
  ZA   - Total nuclear charge
  QA   - Mulliken gross atomic charge
  VA   - Mayer's total valence
  BVA  - Mayer's bonded valence
  FA   - Mayer's free valence

  ATOM       NA         ZA         QA         VA         BVA        FA
  0 C      6.6934     6.0000    -0.6934     3.8415     3.0803     0.7612
  1 H      0.7691     1.0000     0.2309     1.0002     0.9987     0.0015
  2 H      0.7687     1.0000     0.2313     0.9996     0.9981     0.0015
  3 H      0.7687     1.0000     0.2313     0.9996     0.9981     0.0015

  Mayer bond orders larger than 0.100000
B(  0-C ,  1-H ) :   1.0271 B(  0-C ,  2-H ) :   1.0266 B(  0-C ,  3-H ) :   1.0266 


-------
TIMINGS
-------

Total SCF time: 0 days 0 hours 0 min 7 sec 

Total time                  ....       7.578 sec
Sum of individual times     ....       6.957 sec  ( 91.8%)

Fock matrix formation       ....       5.822 sec  ( 76.8%)
  Split-RI-J                ....       0.769 sec  ( 13.2% of F)
  Chain of spheres X        ....       1.350 sec  ( 23.2% of F)
  XC integration            ....       1.209 sec  ( 20.8% of F)
    Basis function eval.    ....       0.050 sec  (  4.2% of XC)
    Density eval.           ....       0.049 sec  (  4.1% of XC)
    XC-Functional eval.     ....       0.054 sec  (  4.5% of XC)
    XC-Potential eval.      ....       0.072 sec  (  6.0% of XC)
Diagonalization             ....       0.204 sec  (  2.7%)
Density matrix formation    ....       0.006 sec  (  0.1%)
Population analysis         ....       0.109 sec  (  1.4%)
Initial guess               ....       0.102 sec  (  1.3%)
Orbital Transformation      ....       0.000 sec  (  0.0%)
Orbital Orthonormalization  ....       0.000 sec  (  0.0%)
DIIS solution               ....       0.348 sec  (  4.6%)
Grid generation             ....       0.366 sec  (  4.8%)

Maximum memory used throughout the entire SCF-calculation: 58.5 MB


-------------------------------------------------------------------------------
                          DFT DISPERSION CORRECTION                            
                                                                               
                              DFTD3 V3.1  Rev 1                                
                              USING zero damping                               
-------------------------------------------------------------------------------
The omegaB97X-D3 functional is recognized. Fit by Chai et al.
Active option DFTDOPT                   ...         3   

molecular C6(AA) [au] = 106.955248 


            DFT-D V3
 parameters
 s6 scaling factor         :     1.0000 
 rs6 scaling factor        :     1.2810 
 s8 scaling factor         :     1.0000 
 rs8 scaling factor        :     1.0940 
 Damping factor alpha6     :    14.0000 
 Damping factor alpha8     :    16.0000 
 ad hoc parameters k1-k3   :    16.0000     1.3333    -4.0000 

 Edisp/kcal,au: -0.003269750440  -0.000005210678 
 E6   /kcal   :  -0.000507788 
 E8   /kcal   :  -0.002761963 
 % E8         :  84.470141936 

-------------------------   ----------------
Dispersion correction           -0.000005211
-------------------------   ----------------


-------------------------   --------------------
FINAL SINGLE POINT ENERGY       -39.793670584976
-------------------------   --------------------



           ************************************************************
           *        Program running with 18 parallel MPI-processes    *
           *              working on a common directory               *
           ************************************************************
------------------------------------------------------------------------------
                         ORCA SCF GRADIENT CALCULATION
------------------------------------------------------------------------------

 ... reading COSX grid (gridx3)
Gradient of the Kohn-Sham DFT energy:
Kohn-Sham wavefunction type      ... UKS
Hartree-Fock exchange scaling    ...    0.196
Number of operators              ...    2
Number of atoms                  ...    4
Basis set dimensions             ...   64
Integral neglect threshold       ... 2.5e-11
Integral primitive cutoff        ... 2.5e-12
SHARK Integral package           ... ON

Nuc. rep. gradient       (SHARK) ... done (  0.0 sec)
HCore & Overlap gradient (SHARK) ... done (  0.0 sec)
RI-J gradient            (SHARK) ... done (  0.1 sec)
COSX-gradient                    ... done (  0.1 sec)
Exchange-correlation gradient    ... done
Dispersion correction            ... done

------------------
CARTESIAN GRADIENT
------------------

WARNING: THERE ARE 3 CONSTRAINED CARTESIAN COORDINATES
   1   C   :   -0.000074190   -0.000000040    0.078383257
   2   H   :   -0.033363203    0.000000015   -0.026105567
   3   H   :    0.016707186   -0.028865216   -0.026114104
   4   H   :    0.016707210    0.028865216   -0.026114090

Difference to translation invariance:
           :   -0.0000229969   -0.0000000255    0.0000494973

Difference to rotation invariance:
           :   -0.0000000052   -0.0000696327    0.0000000612

Norm of the cartesian gradient     ...    0.1073643276
RMS gradient                       ...    0.0309934117
MAX gradient                       ...    0.0783832575

-------
TIMINGS
-------

Total SCF gradient time            ...        0.632 sec

One electron gradient       ....       0.007 sec  (  1.1%)
RI-J Coulomb gradient       ....       0.126 sec  ( 20.0%)
COSX gradient               ....       0.118 sec  ( 18.7%)
XC gradient                 ....       0.062 sec  (  9.7%)

Maximum memory used throughout the entire SCFGRAD-calculation: 33.6 MB
------------------------------------------------------------------------------
                         ORCA GEOMETRY RELAXATION STEP
------------------------------------------------------------------------------

Reading the OPT-File                    .... done
Getting information on internals        .... done
Copying old internal coords+grads       .... done
Making the new internal coordinates     .... (new redundants).... done
Validating the new internal coordinates .... (new redundants).... done
Calculating the B-matrix                .... done
Calculating the G,G- and P matrices     .... done
Transforming gradient to internals      .... done
Projecting the internal gradient        .... done
Number of atoms                         ....   4
Number of internal coordinates          ....   7
Current Energy                          ....   -39.793670585 Eh
Current gradient norm                   ....     0.107364328 Eh/bohr
Maximum allowed component of the step   ....  0.300
Current trust radius                    ....  0.300
Evaluating the initial hessian          ....  (Almloef) done
Projecting the Hessian                  .... done
Forming the augmented Hessian           .... done
Diagonalizing the augmented Hessian     .... done
Last element of RFO vector              ....  0.997709247
Lowest eigenvalues of augmented Hessian:
 -0.001725366  0.373574723  0.373574723  0.375300089 1000.000000000
Length of the computed step             ....  0.067803363
The final length of the internal step   ....  0.067803363
Converting the step to cartesian space:
 Initial RMS(Int)=    0.0256272625
Transforming coordinates:
 Iter   0:  RMS(Cart)=    0.0174363422 RMS(Int)=    0.0256272626
 Iter   1:  RMS(Cart)=    0.0000000000 RMS(Int)=    0.0000000000
Imposing constraints:
 Iter   0:  RMS(Cart)=    0.0000000002 RMS(Int)=    0.0000000002
CONVERGED
done
Storing new coordinates                 .... done

                                .--------------------.
          ----------------------|Geometry convergence|-------------------------
          Item                value                   Tolerance       Converged
          ---------------------------------------------------------------------
          RMS gradient        0.0096179139            0.0001000000      NO
          MAX gradient        0.0146948751            0.0003000000      NO
          RMS step            0.0256272625            0.0020000000      NO
          MAX step            0.0391550005            0.0040000000      NO
          ........................................................
          Max(Bonds)      0.0207      Max(Angles)    0.00
          Max(Dihed)        0.00      Max(Improp)    0.00
          ---------------------------------------------------------------------

The optimization has not yet converged - more geometry cycles are needed


    ---------------------------------------------------------------------------
                         Redundant Internal Coordinates
                            (Angstroem and degrees)

        Definition                    Value    dE/dq     Step     New-Value
    ----------------------------------------------------------------------------
     1. B(H   1,C   0)                1.0800 -0.014685  0.0207    1.1007   
     2. B(H   2,C   0)                1.0800 -0.014695  0.0207    1.1007   
     3. B(H   3,C   0)                1.0800 -0.014695  0.0207    1.1007   
     4. A(H   2,C   0,H   3)           95.00 -0.057070   -0.00     95.00 C 
     5. A(H   1,C   0,H   2)           95.00 -0.027224   -0.00     95.00 C 
     6. A(H   1,C   0,H   3)           95.00 -0.027224    0.00     95.00 C 
     7. I(H   1,H   3,H   2,C   0)     82.59  0.044533   -0.00     82.59   
    ----------------------------------------------------------------------------

         *************************************************************
         *                GEOMETRY OPTIMIZATION CYCLE   2            *
         *************************************************************
---------------------------------
CARTESIAN COORDINATES (ANGSTROEM)
---------------------------------
  C      0.000004    0.000000    0.008151
  H      0.937072    0.000000   -0.569308
  H     -0.468538    0.811536   -0.569311
  H     -0.468538   -0.811536   -0.569311

----------------------------
CARTESIAN COORDINATES (A.U.)
----------------------------
  NO LB      ZA    FRAG     MASS         X           Y           Z
   0 C     6.0000    0    12.011    0.000008    0.000000    0.015403
   1 H     1.0000    0     1.008    1.770809    0.000000   -1.075837
   2 H     1.0000    0     1.008   -0.885408    1.533580   -1.075842
   3 H     1.0000    0     1.008   -0.885408   -1.533581   -1.075842

--------------------------------
INTERNAL COORDINATES (ANGSTROEM)
--------------------------------
 C      0   0   0     0.000000000000     0.00000000     0.00000000
 H      1   0   0     1.100706145255     0.00000000     0.00000000
 H      1   2   0     1.100719891506    95.00000002     0.00000000
 H      1   2   3     1.100719933852    95.00000002    95.47878177

---------------------------
INTERNAL COORDINATES (A.U.)
---------------------------
 C      0   0   0     0.000000000000     0.00000000     0.00000000
 H      1   0   0     2.080033168455     0.00000000     0.00000000
 H      1   2   0     2.080059145107    95.00000002     0.00000000
 H      1   2   3     2.080059225129    95.00000002    95.47878177



           ************************************************************
           *        Program running with 18 parallel MPI-processes    *
           *              working on a common directory               *
           ************************************************************
------------------------------------------------------------------------------
                   ___                                                        
                  /   \      - P O W E R E D   B Y -                         
                 /     \                                                     
                 |  |  |   _    _      __       _____    __    __             
                 |  |  |  | |  | |    /  \     |  _  \  |  |  /  |          
                  \  \/   | |  | |   /    \    | | | |  |  | /  /          
                 / \  \   | |__| |  /  /\  \   | |_| |  |  |/  /          
                |  |  |   |  __  | /  /__\  \  |    /   |      \           
                |  |  |   | |  | | |   __   |  |    \   |  |\   \          
                \     /   | |  | | |  |  |  |  | |\  \  |  | \   \       
                 \___/    |_|  |_| |__|  |__|  |_| \__\ |__|  \__/        
                                                                              
                      - O R C A' S   B I G   F R I E N D -                    
                                      &                                       
                       - I N T E G R A L  F E E D E R -                       
                                                                              
 v1 FN, 2020, v2 2021                                                         
------------------------------------------------------------------------------


Reading SHARK input file /beegfs/scratch/ispackman/PFAS_EPR_calcs/benchmark/JChemEd_CF3_radical/CH3_radical_95.0_degrees_IN-PROGRESS/CH3_radical_95.0_degrees.SHARKINP.tmp ... ok
----------------------
SHARK INTEGRAL PACKAGE
----------------------

Number of atoms                             ...      4
Number of basis functions                   ...     64
Number of shells                            ...     28
Maximum angular momentum                    ...      3
Integral batch strategy                     ... SHARK/LIBINT Hybrid
RI-J (if used) integral strategy            ... SPLIT-RIJ (Revised 2003 algorithm where possible)
Printlevel                                  ...      1
Contraction scheme used                     ... SEGMENTED contraction
Coulomb Range Separation                    ... NOT USED
Exchange Range Separation                   ... Long Range
   Mu parameter                             ...  0.250000
   Scaling (regular/separated)              ...  0.195728  0.804272
Finite Nucleus Model                        ... NOT USED
Auxiliary Coulomb fitting basis             ... AVAILABLE
   # of basis functions in Aux-J            ...     82
   # of shells in Aux-J                     ...     30
   Maximum angular momentum in Aux-J        ...      4
Auxiliary J/K fitting basis                 ... NOT available
Auxiliary Correlation fitting basis         ... NOT available
Auxiliary 'external' fitting basis          ... NOT available
Integral threshold                          ...     2.500000e-11
Primitive cut-off                           ...     2.500000e-12
Primitive pair pre-selection threshold      ...     2.500000e-12

Calculating pre-screening integrals         ... done (  0.1 sec) Dimension = 28
Organizing shell pair data                  ... done (  0.0 sec)
Shell pair information
Total number of shell pairs                 ...       406
Shell pairs after pre-screening             ...       406
Total number of primitive shell pairs       ...       977
Primitive shell pairs kept                  ...       947
          la=0 lb=0:    120 shell pairs
          la=1 lb=0:    135 shell pairs
          la=1 lb=1:     45 shell pairs
          la=2 lb=0:     45 shell pairs
          la=2 lb=1:     27 shell pairs
          la=2 lb=2:      6 shell pairs
          la=3 lb=0:     15 shell pairs
          la=3 lb=1:      9 shell pairs
          la=3 lb=2:      3 shell pairs
          la=3 lb=3:      1 shell pairs

Calculating one electron integrals          ... done (  0.0 sec)
Calculating RI/J V-Matrix + Cholesky decomp.... done (  0.0 sec)
Calculating Nuclear repulsion               ... done (  0.0 sec) ENN=      9.631743283829 Eh

SHARK setup successfully completed in   0.3 seconds

Maximum memory used throughout the entire GTOINT-calculation: 14.0 MB


           ************************************************************
           *        Program running with 18 parallel MPI-processes    *
           *              working on a common directory               *
           ************************************************************

Diagonalization of the overlap matrix:
Smallest eigenvalue                        ... 3.948e-05
Time for diagonalization                   ...    0.002 sec
Threshold for overlap eigenvalues          ... 1.000e-08
Number of eigenvalues below threshold      ... 0
Time for construction of square roots      ...    0.014 sec
Total time needed                          ...    0.017 sec

-------------------
DFT GRID GENERATION
-------------------

General Integration Accuracy     IntAcc      ... 4.388
Radial Grid Type                 RadialGrid  ... OptM3 with GC (2021)
Angular Grid (max. ang.)         AngularGrid ... 4 (Lebedev-302)
Angular grid pruning method      GridPruning ... 4 (adaptive)
Weight generation scheme         WeightScheme... Becke
Basis function cutoff            BFCut       ... 1.0000e-11
Integration weight cutoff        WCut        ... 1.0000e-14
Angular grids for H and He will be reduced by one unit
Partially contracted basis set               ... off
Rotationally invariant grid construction     ... off

Total number of grid points                  ...    17044
Total number of batches                      ...      269
Average number of points per batch           ...       63
Average number of grid points per atom       ...     4261
Time for grid setup =    0.085 sec

--------------------
COSX GRID GENERATION
--------------------

GRIDX 1
-------
General Integration Accuracy     IntAcc      ... 3.816
Radial Grid Type                 RadialGrid  ... OptM3 with GC (2021)
Angular Grid (max. ang.)         AngularGrid ... 1 (Lebedev-50)
Angular grid pruning method      GridPruning ... 4 (adaptive)
Weight generation scheme         WeightScheme... Becke
Basis function cutoff            BFCut       ... 1.0000e-11
Integration weight cutoff        WCut        ... 1.0000e-14
Angular grids for H and He will be reduced by one unit
Partially contracted basis set               ... on
Rotationally invariant grid construction     ... off

Total number of grid points                  ...     2144
Total number of batches                      ...       36
Average number of points per batch           ...       59
Average number of grid points per atom       ...      536
UseSFitting                                  ... on

GRIDX 2
-------
General Integration Accuracy     IntAcc      ... 4.020
Radial Grid Type                 RadialGrid  ... OptM3 with GC (2021)
Angular Grid (max. ang.)         AngularGrid ... 2 (Lebedev-110)
Angular grid pruning method      GridPruning ... 4 (adaptive)
Weight generation scheme         WeightScheme... Becke
Basis function cutoff            BFCut       ... 1.0000e-11
Integration weight cutoff        WCut        ... 1.0000e-14
Angular grids for H and He will be reduced by one unit
Partially contracted basis set               ... on
Rotationally invariant grid construction     ... off

Total number of grid points                  ...     5055
Total number of batches                      ...       80
Average number of points per batch           ...       63
Average number of grid points per atom       ...     1264
UseSFitting                                  ... on

GRIDX 3
-------
General Integration Accuracy     IntAcc      ... 4.338
Radial Grid Type                 RadialGrid  ... OptM3 with GC (2021)
Angular Grid (max. ang.)         AngularGrid ... 3 (Lebedev-194)
Angular grid pruning method      GridPruning ... 4 (adaptive)
Weight generation scheme         WeightScheme... Becke
Basis function cutoff            BFCut       ... 1.0000e-11
Integration weight cutoff        WCut        ... 1.0000e-14
Angular grids for H and He will be reduced by one unit
Partially contracted basis set               ... on
Rotationally invariant grid construction     ... off

Total number of grid points                  ...    11718
Total number of batches                      ...      184
Average number of points per batch           ...       63
Average number of grid points per atom       ...     2930
UseSFitting                                  ... on

Time for X-Grid setup             =    0.236 sec

--------------
SCF ITERATIONS
--------------
ITER       Energy         Delta-E        Max-DP      RMS-DP      [F,P]     Damp
               ***  Starting incremental Fock matrix formation  ***
  0    -39.7942984141   0.000000000000 0.02123473  0.00034706  0.0068635 0.7000
  1    -39.7943789781  -0.000080564027 0.01832125  0.00030059  0.0049889 0.7000
                               ***Turning on DIIS***
  2    -39.7944329714  -0.000053993221 0.04674409  0.00076882  0.0036171 0.0000
  3    -39.7945518303  -0.000118858961 0.00737884  0.00012698  0.0008492 0.0000
               *** Restarting incremental Fock matrix formation ***
                                   *** Resetting DIIS ***
  4    -39.7945574812  -0.000005650894 0.00132935  0.00002908  0.0004167 0.0000
  5    -39.7945584057  -0.000000924470 0.00053395  0.00001076  0.0002354 0.0000
  6    -39.7945588153  -0.000000409607 0.00033581  0.00000710  0.0000509 0.0000
  7    -39.7945588463  -0.000000031019 0.00011658  0.00000218  0.0000114 0.0000
                 **** Energy Check signals convergence ****

               *****************************************************
               *                     SUCCESS                       *
               *           SCF CONVERGED AFTER   8 CYCLES          *
               *****************************************************

Old exchange energy                            =     -2.167071107 Eh
New exchange energy                            =     -2.167074765 Eh
Exchange energy change after final integration =     -0.000003658 Eh
Total energy after final integration           =    -39.794562506 Eh
Final COS-X integration done in                =     0.126 sec
Total Energy       :          -39.79456251 Eh           -1082.86510 eV
  Last Energy change         ...   -1.3095e-09  Tolerance :   1.0000e-08
  Last MAX-Density change    ...    0.0000e+00  Tolerance :   1.0000e-07
             **** THE GBW FILE WAS UPDATED (/beegfs/scratch/ispackman/PFAS_EPR_calcs/benchmark/JChemEd_CF3_radical/CH3_radical_95.0_degrees_IN-PROGRESS/CH3_radical_95.0_degrees.gbw) ****
             **** DENSITY /beegfs/scratch/ispackman/PFAS_EPR_calcs/benchmark/JChemEd_CF3_radical/CH3_radical_95.0_degrees_IN-PROGRESS/CH3_radical_95.0_degrees.scfp WAS UPDATED ****
             **** ENERGY FILE WAS UPDATED (/beegfs/scratch/ispackman/PFAS_EPR_calcs/benchmark/JChemEd_CF3_radical/CH3_radical_95.0_degrees_IN-PROGRESS/CH3_radical_95.0_degrees.en.tmp) ****
----------------------
UHF SPIN CONTAMINATION
----------------------

Warning: in a DFT calculation there is little theoretical justification to 
         calculate <S**2> as in Hartree-Fock theory. We will do it anyways
         but you should keep in mind that the values have only limited relevance

Expectation value of <S**2>     :     0.753379
Ideal value S*(S+1) for S=0.5   :     0.750000
Deviation                       :     0.003379

             **** THE GBW FILE WAS UPDATED (/beegfs/scratch/ispackman/PFAS_EPR_calcs/benchmark/JChemEd_CF3_radical/CH3_radical_95.0_degrees_IN-PROGRESS/CH3_radical_95.0_degrees.gbw) ****
             **** DENSITY /beegfs/scratch/ispackman/PFAS_EPR_calcs/benchmark/JChemEd_CF3_radical/CH3_radical_95.0_degrees_IN-PROGRESS/CH3_radical_95.0_degrees.scfp WAS UPDATED ****
Total SCF time: 0 days 0 hours 0 min 5 sec 

Maximum memory used throughout the entire SCF-calculation: 58.5 MB


-------------------------------------------------------------------------------
                          DFT DISPERSION CORRECTION                            
                                                                               
                              DFTD3 V3.1  Rev 1                                
                              USING zero damping                               
-------------------------------------------------------------------------------
-------------------------   ----------------
Dispersion correction           -0.000006068
-------------------------   ----------------


-------------------------   --------------------
FINAL SINGLE POINT ENERGY       -39.794568574477
-------------------------   --------------------



           ************************************************************
           *        Program running with 18 parallel MPI-processes    *
           *              working on a common directory               *
           ************************************************************
------------------------------------------------------------------------------
                         ORCA SCF GRADIENT CALCULATION
------------------------------------------------------------------------------

 ... reading COSX grid (gridx3)
Gradient of the Kohn-Sham DFT energy:
Kohn-Sham wavefunction type      ... UKS
Hartree-Fock exchange scaling    ...    0.196
Number of operators              ...    2
Number of atoms                  ...    4
Basis set dimensions             ...   64
Integral neglect threshold       ... 2.5e-11
Integral primitive cutoff        ... 2.5e-12
SHARK Integral package           ... ON

Nuc. rep. gradient       (SHARK) ... done (  0.0 sec)
HCore & Overlap gradient (SHARK) ... done (  0.0 sec)
RI-J gradient            (SHARK) ... done (  0.1 sec)
COSX-gradient                    ... done (  0.1 sec)
Exchange-correlation gradient    ... done
Dispersion correction            ... done

------------------
CARTESIAN GRADIENT
------------------

WARNING: THERE ARE 3 CONSTRAINED CARTESIAN COORDINATES
   1   C   :   -0.000081362    0.000000031    0.096062208
   2   H   :   -0.020733102   -0.000000035   -0.031997569
   3   H   :    0.010394217   -0.017927050   -0.032010341
   4   H   :    0.010394216    0.017927043   -0.032010339

Difference to translation invariance:
           :   -0.0000260310   -0.0000000113    0.0000439598

Difference to rotation invariance:
           :   -0.0000000469   -0.0000845494   -0.0000000578

Norm of the cartesian gradient     ...    0.1165753903
RMS gradient                       ...    0.0336524165
MAX gradient                       ...    0.0960622085

-------
TIMINGS
-------

Total SCF gradient time            ...        0.597 sec

One electron gradient       ....       0.006 sec  (  1.1%)
RI-J Coulomb gradient       ....       0.115 sec  ( 19.3%)
COSX gradient               ....       0.123 sec  ( 20.7%)
XC gradient                 ....       0.079 sec  ( 13.2%)

Maximum memory used throughout the entire SCFGRAD-calculation: 33.6 MB
------------------------------------------------------------------------------
                         ORCA GEOMETRY RELAXATION STEP
------------------------------------------------------------------------------

Reading the OPT-File                    .... done
Getting information on internals        .... done
Copying old internal coords+grads       .... done
Making the new internal coordinates     .... (new redundants).... done
Validating the new internal coordinates .... (new redundants).... done
Calculating the B-matrix                .... done
Calculating the G,G- and P matrices     .... done
Transforming gradient to internals      .... done
Projecting the internal gradient        .... done
Number of atoms                         ....   4
Number of internal coordinates          ....   7
Current Energy                          ....   -39.794568574 Eh
Current gradient norm                   ....     0.116575390 Eh/bohr
Maximum allowed component of the step   ....  0.300
Current trust radius                    ....  0.300
Updating the Hessian (BFGS)             .... done
Forming the augmented Hessian           .... done
Diagonalizing the augmented Hessian     .... done
Last element of RFO vector              ....  0.999991379
Lowest eigenvalues of augmented Hessian:
 -0.000006098  0.353647276  0.373574723  0.373575793 1000.000000000
Length of the computed step             ....  0.004152470
The final length of the internal step   ....  0.004152470
Converting the step to cartesian space:
 Initial RMS(Int)=    0.0015694863
Transforming coordinates:
 Iter   0:  RMS(Cart)=    0.0010678448 RMS(Int)=    0.0015694863
 Iter   1:  RMS(Cart)=    0.0000000000 RMS(Int)=    0.0000000000
Imposing constraints:
 Iter   0:  RMS(Cart)=    0.0000000001 RMS(Int)=    0.0000000001
CONVERGED
done
Storing new coordinates                 .... done

                                .--------------------.
          ----------------------|Geometry convergence|-------------------------
          Item                value                   Tolerance       Converged
          ---------------------------------------------------------------------
          Energy change      -0.0008979895            0.0000050000      NO
          RMS gradient        0.0005550446            0.0001000000      NO
          MAX gradient        0.0008519503            0.0003000000      NO
          RMS step            0.0015694863            0.0020000000      YES
          MAX step            0.0024090906            0.0040000000      YES
          ........................................................
          Max(Bonds)      0.0013      Max(Angles)    0.00
          Max(Dihed)        0.00      Max(Improp)    0.00
          ---------------------------------------------------------------------

The optimization has not yet converged - more geometry cycles are needed


    ---------------------------------------------------------------------------
                         Redundant Internal Coordinates
                            (Angstroem and degrees)

        Definition                    Value    dE/dq     Step     New-Value
    ----------------------------------------------------------------------------
     1. B(H   1,C   0)                1.1007 -0.000840  0.0013    1.1020   
     2. B(H   2,C   0)                1.1007 -0.000852  0.0013    1.1020   
     3. B(H   3,C   0)                1.1007 -0.000852  0.0013    1.1020   
     4. A(H   2,C   0,H   3)           95.00 -0.055803    0.00     95.00 C 
     5. A(H   1,C   0,H   2)           95.00 -0.026625    0.00     95.00 C 
     6. A(H   1,C   0,H   3)           95.00 -0.026625    0.00     95.00 C 
     7. I(H   1,H   3,H   2,C   0)     82.59  0.043552   -0.00     82.59   
    ----------------------------------------------------------------------------

         *************************************************************
         *                GEOMETRY OPTIMIZATION CYCLE   3            *
         *************************************************************
---------------------------------
CARTESIAN COORDINATES (ANGSTROEM)
---------------------------------
  C      0.000010    0.000000    0.008650
  H      0.938144    0.000000   -0.569472
  H     -0.469077    0.812476   -0.569478
  H     -0.469077   -0.812476   -0.569478

----------------------------
CARTESIAN COORDINATES (A.U.)
----------------------------
  NO LB      ZA    FRAG     MASS         X           Y           Z
   0 C     6.0000    0    12.011    0.000019    0.000000    0.016346
   1 H     1.0000    0     1.008    1.772836    0.000000   -1.076146
   2 H     1.0000    0     1.008   -0.886428    1.535357   -1.076158
   3 H     1.0000    0     1.008   -0.886428   -1.535357   -1.076158

--------------------------------
INTERNAL COORDINATES (ANGSTROEM)
--------------------------------
 C      0   0   0     0.000000000000     0.00000000     0.00000000
 H      1   0   0     1.101962391181     0.00000000     0.00000000
 H      1   2   0     1.101994727323    95.00000003     0.00000000
 H      1   2   3     1.101994757203    95.00000003    95.47878177

---------------------------
INTERNAL COORDINATES (A.U.)
---------------------------
 C      0   0   0     0.000000000000     0.00000000     0.00000000
 H      1   0   0     2.082407129212     0.00000000     0.00000000
 H      1   2   0     2.082468235665    95.00000003     0.00000000
 H      1   2   3     2.082468292131    95.00000003    95.47878177



           ************************************************************
           *        Program running with 18 parallel MPI-processes    *
           *              working on a common directory               *
           ************************************************************
------------------------------------------------------------------------------
                   ___                                                        
                  /   \      - P O W E R E D   B Y -                         
                 /     \                                                     
                 |  |  |   _    _      __       _____    __    __             
                 |  |  |  | |  | |    /  \     |  _  \  |  |  /  |          
                  \  \/   | |  | |   /    \    | | | |  |  | /  /          
                 / \  \   | |__| |  /  /\  \   | |_| |  |  |/  /          
                |  |  |   |  __  | /  /__\  \  |    /   |      \           
                |  |  |   | |  | | |   __   |  |    \   |  |\   \          
                \     /   | |  | | |  |  |  |  | |\  \  |  | \   \       
[...]
  ZA   - Total nuclear charge
  QA   - Mulliken gross atomic charge
  VA   - Mayer's total valence
  BVA  - Mayer's bonded valence
  FA   - Mayer's free valence

  ATOM       NA         ZA         QA         VA         BVA        FA
  0 C      6.6544     6.0000    -0.6544     3.8546     3.0748     0.7799
  1 H      0.7822     1.0000     0.2178     1.0099     1.0088     0.0011
  2 H      0.7817     1.0000     0.2183     1.0093     1.0081     0.0011
  3 H      0.7817     1.0000     0.2183     1.0092     1.0081     0.0011

  Mayer bond orders larger than 0.100000
B(  0-C ,  1-H ) :   1.0253 B(  0-C ,  2-H ) :   1.0247 B(  0-C ,  3-H ) :   1.0247 


-------
TIMINGS
-------

Total SCF time: 0 days 0 hours 0 min 4 sec 

Total time                  ....       4.354 sec
Sum of individual times     ....       3.801 sec  ( 87.3%)

Fock matrix formation       ....       3.099 sec  ( 71.2%)
  Split-RI-J                ....       0.532 sec  ( 17.2% of F)
  Chain of spheres X        ....       0.798 sec  ( 25.8% of F)
  XC integration            ....       0.562 sec  ( 18.1% of F)
    Basis function eval.    ....       0.024 sec  (  4.3% of XC)
    Density eval.           ....       0.023 sec  (  4.1% of XC)
    XC-Functional eval.     ....       0.025 sec  (  4.4% of XC)
    XC-Potential eval.      ....       0.031 sec  (  5.5% of XC)
Diagonalization             ....       0.091 sec  (  2.1%)
Density matrix formation    ....       0.008 sec  (  0.2%)
Population analysis         ....       0.145 sec  (  3.3%)
Initial guess               ....       0.008 sec  (  0.2%)
Orbital Transformation      ....       0.000 sec  (  0.0%)
Orbital Orthonormalization  ....       0.002 sec  (  0.1%)
DIIS solution               ....       0.093 sec  (  2.1%)
Grid generation             ....       0.357 sec  (  8.2%)

Maximum memory used throughout the entire SCF-calculation: 58.5 MB


-------------------------------------------------------------------------------
                          DFT DISPERSION CORRECTION                            
                                                                               
                              DFTD3 V3.1  Rev 1                                
                              USING zero damping                               
-------------------------------------------------------------------------------
The omegaB97X-D3 functional is recognized. Fit by Chai et al.
Active option DFTDOPT                   ...         3   

molecular C6(AA) [au] = 107.014483 


            DFT-D V3
 parameters
 s6 scaling factor         :     1.0000 
 rs6 scaling factor        :     1.2810 
 s8 scaling factor         :     1.0000 
 rs8 scaling factor        :     1.0940 
 Damping factor alpha6     :    14.0000 
 Damping factor alpha8     :    16.0000 
 ad hoc parameters k1-k3   :    16.0000     1.3333    -4.0000 

 Edisp/kcal,au: -0.003845577905  -0.000006128318 
 E6   /kcal   :  -0.000597250 
 E8   /kcal   :  -0.003248328 
 % E8         :  84.469166383 

-------------------------   ----------------
Dispersion correction           -0.000006128
-------------------------   ----------------


-------------------------   --------------------
FINAL SINGLE POINT ENERGY       -39.794571883706
-------------------------   --------------------

                                *** OPTIMIZATION RUN DONE ***

                            ***************************************
                            *     ORCA property calculations      *
                            ***************************************

                                    ---------------------
                                    Active property flags
                                    ---------------------
   (+) Dipole Moment


------------------------------------------------------------------------------
                       ORCA ELECTRIC PROPERTIES CALCULATION
------------------------------------------------------------------------------

Dipole Moment Calculation                       ... on
Quadrupole Moment Calculation                   ... off
Polarizability Calculation                      ... off
GBWName                                         ... /beegfs/scratch/ispackman/PFAS_EPR_calcs/benchmark/JChemEd_CF3_radical/CH3_radical_95.0_degrees_IN-PROGRESS/CH3_radical_95.0_degrees.gbw
Electron density                                ... /beegfs/scratch/ispackman/PFAS_EPR_calcs/benchmark/JChemEd_CF3_radical/CH3_radical_95.0_degrees_IN-PROGRESS/CH3_radical_95.0_degrees.scfp
The origin for moment calculation is the CENTER OF MASS  = ( 0.000015,  0.000000 -0.203346)

-------------
DIPOLE MOMENT
-------------
                                X             Y             Z
Electronic contribution:      0.00020      -0.00000       0.97918
Nuclear contribution   :     -0.00003      -0.00000      -1.29998
                        -----------------------------------------
Total Dipole Moment    :      0.00016      -0.00000      -0.32079
                        -----------------------------------------
Magnitude (a.u.)       :      0.32079
Magnitude (Debye)      :      0.81539



--------------------
Rotational spectrum 
--------------------
 
Rotational constants in cm-1:     7.883012     7.882805     6.332879 
Rotational constants in MHz : 236326.766555 236320.535205 189854.932615 

 Dipole components along the rotational axes: 
x,y,z [a.u.] :     0.000000     0.000147    -0.320793 
x,y,z [Debye]:     0.000000     0.000373    -0.815391 

 


           ************************************************************
           *        Program running with 18 parallel MPI-processes    *
           *              working on a common directory               *
           ************************************************************

-------------------------------------------------------------------------------
                               ORCA SCF HESSIAN
-------------------------------------------------------------------------------

                   --------- SHARK INITIALIZATION DONE ---------

Hessian of the Kohn-Sham DFT energy:
Kohn-Sham wavefunction type                      ... UKS
Hartree-Fock exchange scaling                    ...    0.196
Number of operators                              ...    2
Number of atoms                                  ...    4
Basis set dimensions                             ...   64
Integral neglect threshold                       ... 2.5e-11
Integral primitive cutoff                        ... 2.5e-12

Setting up DFT Hessian calculations              ... 

HESS GRID
---------

General Integration Accuracy     IntAcc      ... 4.629
Radial Grid Type                 RadialGrid  ... OptM3 with GC (2021)
Angular Grid (max. ang.)         AngularGrid ... 5 (Lebedev-434)
Angular grid pruning method      GridPruning ... 4 (adaptive)
Weight generation scheme         WeightScheme... Becke
Basis function cutoff            BFCut       ... 1.0000e-11
Integration weight cutoff        WCut        ... 1.0000e-14
Angular grids for H and He will be reduced by one unit
Partially contracted basis set               ... off
Rotationally invariant grid construction     ... off

Total number of grid points                  ...    27269
Total number of batches                      ...      428
Average number of points per batch           ...       63
Average number of grid points per atom       ...     6817

Building densities                               ... done   (      0.0 sec)
Calculating rho(r) on the grid                   ... done   (      0.1 sec)
Building xc-kernel on the grid                   ... done   (      0.1 sec)
                                                     done   (      0.4 sec)

Nuclear repulsion Hessian  (SHARK)               ... done   (      0.0 sec)

----------------------------------------------
Forming right-hand sides of CP-SCF equations     ...
----------------------------------------------
One electron integral derivatives  (SHARK)       ... done   (      0.0 sec)
Transforming the overlap derivative matrices     ... done   (      0.0 sec)
Making the Q(x) pseudodensities                  ... done   (      0.0 sec)
Adding the E*S(x)*S(y) terms to the Hessian      ... done   (      0.0 sec)
Calculating energy weighted overlap derivatives  ... done   (      0.0 sec)
Two electron integral derivatives (SHARK-RI)     ... done   (      0.6 sec)
Exchange-correlation integral derivatives        ... done   (      0.4 sec)
tr(F(y)Q(x)) contribution to the Hessian         ... done   (      0.0 sec)
Response fock operator R(S(x)) (SHARK-RIJCOSX)   ... done   (      0.5 sec)
XC Response fock operator R(S(x))                ... done   (      0.1 sec)
tr(F(y)S(x)) contribution to the Hessian         ... done   (      0.0 sec)
Transforming and finalizing RHSs                 ... done   (      0.0 sec)

----------------------------------------------
Solving the CP-SCF equations (RIJCOSX)           ...
----------------------------------------------
     CP-SCF ITERATION   0:   1.4060e-01 (   0.3 sec   0/ 12 done)
     CP-SCF ITERATION   1:   3.2394e-02 (   0.3 sec   0/ 12 done)
     CP-SCF ITERATION   2:   1.3074e-02 (   0.3 sec   0/ 12 done)
     CP-SCF ITERATION   3:   4.4046e-03 (   0.3 sec   0/ 12 done)
     CP-SCF ITERATION   4:   6.9226e-04 (   0.3 sec   1/ 12 done)
     CP-SCF ITERATION   5:   1.6062e-04 (   0.3 sec   5/ 12 done)
     CP-SCF ITERATION   6:   3.7149e-05 (   0.3 sec  12/ 12 done)
                    *** THE CP-SCF HAS CONVERGED ***

                                                 ... done   (      2.3 sec)
Forming perturbed density Hessian contributions  ... done   (      0.0 sec)
2nd integral derivative contribs (SHARK-RI)      ... done   (      0.8 sec)
Exchange-correlation Hessian                     ... done   (      0.3 sec)
Dispersion correction in the Hessian             ... done   (      0.1 sec)
Dipole derivatives                               ... (center of mass:  0.000015,  0.000000 -0.203346)done   (      0.1 sec)

Total SCF Hessian time: 0 days 0 hours 0 min 6 sec 

Writing the Hessian file to the disk             ... done


Maximum memory used throughout the entire SCFHESS-calculation: 109.7 MB

-----------------------
VIBRATIONAL FREQUENCIES
-----------------------

Scaling factor for frequencies =  1.000000000  (already applied!)

   0:         0.00 cm**-1
   1:         0.00 cm**-1
   2:         0.00 cm**-1
   3:         0.00 cm**-1
   4:         0.00 cm**-1
   5:         0.00 cm**-1
   6:      1367.45 cm**-1
   7:      1367.92 cm**-1
   8:      1377.43 cm**-1
   9:      3031.61 cm**-1
  10:      3031.72 cm**-1
  11:      3032.91 cm**-1


------------
NORMAL MODES
------------

These modes are the Cartesian displacements weighted by the diagonal matrix
M(i,i)=1/sqrt(m[i]) where m[i] is the mass of the displaced atom
Thus, these vectors are normalized but *not* orthogonal

                  0          1          2          3          4          5    
      0       0.000000   0.000000   0.000000   0.000000   0.000000   0.000000
      1       0.000000   0.000000   0.000000   0.000000   0.000000   0.000000
      2       0.000000   0.000000   0.000000   0.000000   0.000000   0.000000
      3       0.000000   0.000000   0.000000   0.000000   0.000000   0.000000
      4       0.000000   0.000000   0.000000   0.000000   0.000000   0.000000
      5       0.000000   0.000000   0.000000   0.000000   0.000000   0.000000
      6       0.000000   0.000000   0.000000   0.000000   0.000000   0.000000
      7       0.000000   0.000000   0.000000   0.000000   0.000000   0.000000
      8       0.000000   0.000000   0.000000   0.000000   0.000000   0.000000
      9       0.000000   0.000000   0.000000   0.000000   0.000000   0.000000
     10       0.000000   0.000000   0.000000   0.000000   0.000000   0.000000
     11       0.000000   0.000000   0.000000   0.000000   0.000000   0.000000
                  6          7          8          9         10         11    
      0       0.000000  -0.066565   0.010782  -0.081306   0.000022  -0.005494
      1       0.067302   0.000001   0.000002  -0.000022  -0.081473   0.000008
      2      -0.000003   0.018004   0.123853   0.004205  -0.000007  -0.059701
      3       0.000009  -0.225614  -0.249111   0.741527  -0.000252  -0.476139
      4      -0.721303  -0.000008  -0.000020  -0.000016  -0.059635   0.000006
      5       0.000015  -0.397370  -0.439166  -0.414713   0.000135   0.210235
      6      -0.393155   0.509387   0.060307   0.113550  -0.331898   0.270835
      7      -0.040320   0.354093  -0.304177  -0.299208   0.515255  -0.476106
      8       0.285328   0.091424  -0.518306   0.182212  -0.345420   0.250605
      9       0.393141   0.509396   0.060329   0.113733   0.331890   0.270771
     10      -0.040327  -0.354094   0.304175   0.299492   0.515185   0.476006
     11      -0.285304   0.091418  -0.518322   0.182402   0.345370   0.250538


-----------
IR SPECTRUM
-----------

 Mode   freq       eps      Int      T**2         TX        TY        TZ
       cm**-1   L/(mol*cm) km/mol    a.u.
----------------------------------------------------------------------------
  6:   1367.45   0.001229    6.21  0.000280  (-0.000000 -0.016746  0.000000)
  7:   1367.92   0.001261    6.37  0.000288  ( 0.016769 -0.000000 -0.002540)
  8:   1377.43   0.001198    6.05  0.000271  (-0.002448 -0.000000 -0.016289)
  9:   3031.61   0.008839   44.67  0.000910  (-0.030163 -0.000008  0.000066)
 10:   3031.72   0.009045   45.71  0.000931  ( 0.000008 -0.030514 -0.000000)
 11:   3032.91   0.000053    0.27  0.000005  (-0.002004  0.000003 -0.001179)

* The epsilon (eps) is given for a Dirac delta lineshape.
** The dipole moment derivative (T) already includes vibrational overlap.

The first frequency considered to be a vibration is 6
The total number of vibrations considered is 6


--------------------------
THERMOCHEMISTRY AT 298.15K
--------------------------

Temperature         ... 298.15 K
Pressure            ... 1.00 atm
Total Mass          ... 15.03 AMU

Throughout the following assumptions are being made:
  (1) The electronic state is orbitally nondegenerate
      but the spin degeneracy is treated
  (2) There are no thermally accessible electronically excited states
  (3) Hindered rotations indicated by low frequency modes are not
      treated as such but are treated as vibrations and this may
      cause some error
  (4) All equations used are the standard statistical mechanics
      equations for an ideal gas
  (5) All vibrations are strictly harmonic

freq.    1367.45  E(vib)   ...       0.01 
freq.    1367.92  E(vib)   ...       0.01 
freq.    1377.43  E(vib)   ...       0.01 
freq.    3031.61  E(vib)   ...       0.00 
freq.    3031.72  E(vib)   ...       0.00 
freq.    3032.91  E(vib)   ...       0.00 

------------
INNER ENERGY
------------

The inner energy is: U= E(el) + E(ZPE) + E(vib) + E(rot) + E(trans)
    E(el)   - is the total energy from the electronic structure calculation
              = E(kin-el) + E(nuc-el) + E(el-el) + E(nuc-nuc)
    E(ZPE)  - the the zero temperature vibrational energy from the frequency calculation
    E(vib)  - the the finite temperature correction to E(ZPE) due to population
              of excited vibrational states
    E(rot)  - is the rotational thermal energy
    E(trans)- is the translational thermal energy

Summary of contributions to the inner energy U:
Electronic energy                ...    -39.79457188 Eh
Zero point energy                ...      0.03009240 Eh      18.88 kcal/mol
Thermal vibrational correction   ...      0.00002516 Eh       0.02 kcal/mol
Thermal rotational correction    ...      0.00141627 Eh       0.89 kcal/mol
Thermal translational correction ...      0.00141627 Eh       0.89 kcal/mol
-----------------------------------------------------------------------
Total thermal energy                    -39.76162178 Eh


Summary of corrections to the electronic energy:
(perhaps to be used in another calculation)
Total thermal correction                  0.00285770 Eh       1.79 kcal/mol
Non-thermal (ZPE) correction              0.03009240 Eh      18.88 kcal/mol
-----------------------------------------------------------------------
Total correction                          0.03295010 Eh      20.68 kcal/mol


--------
ENTHALPY
--------

The enthalpy is H = U + kB*T
                kB is Boltzmann's constant
Total free energy                 ...    -39.76162178 Eh 
Thermal Enthalpy correction       ...      0.00094421 Eh       0.59 kcal/mol
-----------------------------------------------------------------------
Total Enthalpy                    ...    -39.76067757 Eh


Note: Rotational entropy computed according to Herzberg 
Infrared and Raman Spectra, Chapter V,1, Van Nostrand Reinhold, 1945 
Point Group:  C3v, Symmetry Number:   3  
Rotational constants in cm-1:     7.883012     7.882805     6.332879 

Vibrational entropy computed according to the QRRHO of S. Grimme
Chem.Eur.J. 2012 18 9955


-------
ENTROPY
-------

The entropy contributions are T*S = T*(S(el)+S(vib)+S(rot)+S(trans))
     S(el)   - electronic entropy
     S(vib)  - vibrational entropy
     S(rot)  - rotational entropy
     S(trans)- translational entropy
The entropies will be listed as multiplied by the temperature to get
units of energy

Electronic entropy                ...      0.00065446 Eh      0.41 kcal/mol
Vibrational entropy               ...      0.00002896 Eh      0.02 kcal/mol
Rotational entropy                ...      0.00565271 Eh      3.55 kcal/mol
Translational entropy             ...      0.01618771 Eh     10.16 kcal/mol
-----------------------------------------------------------------------
Final entropy term                ...      0.02252384 Eh     14.13 kcal/mol

In case the symmetry of your molecule has not been determined correctly
or in case you have a reason to use a different symmetry number we print 
out the resulting rotational entropy values for sn=1,12 :
 --------------------------------------------------------
|  sn= 1 | S(rot)=       0.00669000 Eh      4.20 kcal/mol|
|  sn= 2 | S(rot)=       0.00603554 Eh      3.79 kcal/mol|
|  sn= 3 | S(rot)=       0.00565271 Eh      3.55 kcal/mol|
|  sn= 4 | S(rot)=       0.00538109 Eh      3.38 kcal/mol|
|  sn= 5 | S(rot)=       0.00517040 Eh      3.24 kcal/mol|
|  sn= 6 | S(rot)=       0.00499825 Eh      3.14 kcal/mol|
|  sn= 7 | S(rot)=       0.00485271 Eh      3.05 kcal/mol|
|  sn= 8 | S(rot)=       0.00472663 Eh      2.97 kcal/mol|
|  sn= 9 | S(rot)=       0.00461542 Eh      2.90 kcal/mol|
|  sn=10 | S(rot)=       0.00451594 Eh      2.83 kcal/mol|
|  sn=11 | S(rot)=       0.00442595 Eh      2.78 kcal/mol|
|  sn=12 | S(rot)=       0.00434380 Eh      2.73 kcal/mol|
 --------------------------------------------------------


-------------------
GIBBS FREE ENERGY
-------------------

The Gibbs free energy is G = H - T*S

Total enthalpy                    ...    -39.76067757 Eh 
Total entropy correction          ...     -0.02252384 Eh    -14.13 kcal/mol
-----------------------------------------------------------------------
Final Gibbs free energy         ...    -39.78320141 Eh

For completeness - the Gibbs free energy minus the electronic energy
G-E(el)                           ...      0.01137047 Eh      7.14 kcal/mol


Timings for individual modules:

Sum of individual times         ...       60.410 sec (=   1.007 min)
GTO integral calculation        ...       10.516 sec (=   0.175 min)  17.4 %
SCF iterations                  ...       31.902 sec (=   0.532 min)  52.8 %
SCF Gradient evaluation         ...        9.159 sec (=   0.153 min)  15.2 %
Geometry relaxation             ...        0.169 sec (=   0.003 min)   0.3 %
Analytical frequency calculation...        8.663 sec (=   0.144 min)  14.3 %
                             ****ORCA TERMINATED NORMALLY****
TOTAL RUN TIME: 0 days 0 hours 1 minutes 10 seconds 803 msec

slurmID:    32260132
totalRuntime[s]:    70.841761398
