
                                 *****************
                                 * O   R   C   A *
                                 *****************

                                            #,                                       
                                            ###                                      
                                            ####                                     
                                            #####                                    
                                            ######                                   
                                           ########,                                 
                                     ,,################,,,,,                         
                               ,,#################################,,                 
                          ,,##########################################,,             
                       ,#########################################, ''#####,          
                    ,#############################################,,   '####,        
                  ,##################################################,,,,####,       
                ,###########''''           ''''###############################       
              ,#####''   ,,,,##########,,,,          '''####'''          '####       
            ,##' ,,,,###########################,,,                        '##       
           ' ,,###''''                  '''############,,,                           
         ,,##''                                '''############,,,,        ,,,,,,###''
      ,#''                                            '''#######################'''  
     '                                                          ''''####''''         
             ,#######,   #######,   ,#######,      ##                                
            ,#'     '#,  ##    ##  ,#'     '#,    #''#        ######   ,####,        
            ##       ##  ##   ,#'  ##            #'  '#       #        #'  '#        
            ##       ##  #######   ##           ,######,      #####,   #    #        
            '#,     ,#'  ##    ##  '#,     ,#' ,#      #,         ##   #,  ,#        
             '#######'   ##     ##  '#######'  #'      '#     #####' # '####'        



                  #######################################################
                  #                        -***-                        #
                  #          Department of theory and spectroscopy      #
                  #    Directorship and core code : Frank Neese         #
                  #        Max Planck Institute fuer Kohlenforschung    #
                  #                Kaiser Wilhelm Platz 1               #
                  #                 D-45470 Muelheim/Ruhr               #
                  #                      Germany                        #
                  #                                                     #
                  #                  All rights reserved                #
                  #                        -***-                        #
                  #######################################################


                         Program Version 5.0.4 -  RELEASE  -


 With contributions from (in alphabetic order):
   Daniel Aravena         : Magnetic Suceptibility
   Michael Atanasov       : Ab Initio Ligand Field Theory (pilot matlab implementation)
   Alexander A. Auer      : GIAO ZORA, VPT2 properties, NMR spectrum
   Ute Becker             : Parallelization
   Giovanni Bistoni       : ED, misc. LED, open-shell LED, HFLD
   Martin Brehm           : Molecular dynamics
   Dmytro Bykov           : SCF Hessian
   Vijay G. Chilkuri      : MRCI spin determinant printing, contributions to CSF-ICE
   Dipayan Datta          : RHF DLPNO-CCSD density
   Achintya Kumar Dutta   : EOM-CC, STEOM-CC
   Dmitry Ganyushin       : Spin-Orbit,Spin-Spin,Magnetic field MRCI
   Miquel Garcia          : C-PCM and meta-GGA Hessian, CC/C-PCM, Gaussian charge scheme
   Yang Guo               : DLPNO-NEVPT2, F12-NEVPT2, CIM, IAO-localization
   Andreas Hansen         : Spin unrestricted coupled pair/coupled cluster methods
   Benjamin Helmich-Paris : MC-RPA, TRAH-SCF, COSX integrals
   Lee Huntington         : MR-EOM, pCC
   Robert Izsak           : Overlap fitted RIJCOSX, COSX-SCS-MP3, EOM
   Marcus Kettner         : VPT2
   Christian Kollmar      : KDIIS, OOCD, Brueckner-CCSD(T), CCSD density, CASPT2, CASPT2-K
   Simone Kossmann        : Meta GGA functionals, TD-DFT gradient, OOMP2, MP2 Hessian
   Martin Krupicka        : Initial AUTO-CI
   Lucas Lang             : DCDCAS
   Marvin Lechner         : AUTO-CI (C++ implementation), FIC-MRCC
   Dagmar Lenk            : GEPOL surface, SMD
   Dimitrios Liakos       : Extrapolation schemes; Compound Job, initial MDCI parallelization
   Dimitrios Manganas     : Further ROCIS development; embedding schemes
   Dimitrios Pantazis     : SARC Basis sets
   Anastasios Papadopoulos: AUTO-CI, single reference methods and gradients
   Taras Petrenko         : DFT Hessian,TD-DFT gradient, ASA, ECA, R-Raman, ABS, FL, XAS/XES, NRVS
   Peter Pinski           : DLPNO-MP2, DLPNO-MP2 Gradient
   Christoph Reimann      : Effective Core Potentials
   Marius Retegan         : Local ZFS, SOC
   Christoph Riplinger    : Optimizer, TS searches, QM/MM, DLPNO-CCSD(T), (RO)-DLPNO pert. Triples
   Tobias Risthaus        : Range-separated hybrids, TD-DFT gradient, RPA, STAB
   Michael Roemelt        : Original ROCIS implementation
   Masaaki Saitow         : Open-shell DLPNO-CCSD energy and density
   Barbara Sandhoefer     : DKH picture change effects
   Avijit Sen             : IP-ROCIS
   Kantharuban Sivalingam : CASSCF convergence, NEVPT2, FIC-MRCI
   Bernardo de Souza      : ESD, SOC TD-DFT
   Georgi Stoychev        : AutoAux, RI-MP2 NMR, DLPNO-MP2 response
   Willem Van den Heuvel  : Paramagnetic NMR
   Boris Wezisla          : Elementary symmetry handling
   Frank Wennmohs         : Technical directorship


 We gratefully acknowledge several colleagues who have allowed us to
 interface, adapt or use parts of their codes:
   Stefan Grimme, W. Hujo, H. Kruse, P. Pracht,  : VdW corrections, initial TS optimization,
                  C. Bannwarth, S. Ehlert          DFT functionals, gCP, sTDA/sTD-DF
   Ed Valeev, F. Pavosevic, A. Kumar             : LibInt (2-el integral package), F12 methods
   Garnet Chan, S. Sharma, J. Yang, R. Olivares  : DMRG
   Ulf Ekstrom                                   : XCFun DFT Library
   Mihaly Kallay                                 : mrcc  (arbitrary order and MRCC methods)
   Jiri Pittner, Ondrej Demel                    : Mk-CCSD
   Frank Weinhold                                : gennbo (NPA and NBO analysis)
   Christopher J. Cramer and Donald G. Truhlar   : smd solvation model
   Lars Goerigk                                  : TD-DFT with DH, B97 family of functionals
   V. Asgeirsson, H. Jonsson                     : NEB implementation
   FAccTs GmbH                                   : IRC, NEB, NEB-TS, DLPNO-Multilevel, CI-OPT
                                                   MM, QMMM, 2- and 3-layer-ONIOM, Crystal-QMMM,
                                                   LR-CPCM, SF, NACMEs, symmetry and pop. for TD-DFT,
                                                   nearIR, NL-DFT gradient (VV10), updates on ESD,
                                                   ML-optimized integration grids
   S Lehtola, MJT Oliveira, MAL Marques          : LibXC Library
   Liviu Ungur et al                             : ANISO software


 Your calculation uses the libint2 library for the computation of 2-el integrals
 For citations please refer to: http://libint.valeyev.net

 Your ORCA version has been built with support for libXC version: 5.1.0
 For citations please refer to: https://tddft.org/programs/libxc/

 This ORCA versions uses:
   CBLAS   interface :  Fast vector & matrix operations
   LAPACKE interface :  Fast linear algebra routines
   SCALAPACK package :  Parallel linear algebra routines
   Shared memory     :  Shared parallel matrices
   BLAS/LAPACK       :  OpenBLAS 0.3.15  USE64BITINT DYNAMIC_ARCH NO_AFFINITY SkylakeX SINGLE_THREADED
        Core in use  :  SkylakeX
   Copyright (c) 2011-2014, The OpenBLAS Project


Your calculation utilizes the atom-pairwise dispersion correction
with the zero-damping scheme (D30)
Cite in your paper:
S.Grimme, J.Antony, S.Ehrlich and H.Krieg, J.Chem.Phys., 132, (2010), 154104 
   

XCFun DFT library Copyright 2009-2010 Ulf Ekstrom and contributors.
See http://admol.org/xcfun for more information.
This is free software; see the source code for copying conditions.
There is ABSOLUTELY NO WARRANTY; not even for MERCHANTABILITY or FITNESS FOR A PARTICULAR PURPOSE.
For details see the documentation.
Scientific users of this library should cite U. Ekstrom, L. Visscher, R. Bast, A. J. Thorvaldsen and K. Ruud;
J.Chem.Theor.Comp. 2010, DOI: 10.1021/ct100117s
XCFun Version 0.99 

================================================================================

----- Orbital basis set information -----
Your calculation utilizes the basis: def2-TZVPD
   F. Weigend and R. Ahlrichs, Phys. Chem. Chem. Phys. 7, 3297 (2005).
   D. Rappoport and F. Furche, J. Chem. Phys. 133 134105 (2010).

----- AuxJ basis set information -----
Your calculation utilizes the auxiliary basis: def2/J
   F. Weigend, Phys. Chem. Chem. Phys. 8, 1057 (2006).

================================================================================
                                        WARNINGS
                       Please study these warnings very carefully!
================================================================================


WARNING: Geometry Optimization
  ===> : Switching off AutoStart
         For restart on a previous wavefunction, please use MOREAD

INFO   : the flag for use of the SHARK integral package has been found!

================================================================================
                                       INPUT FILE
================================================================================
NAME = /beegfs/scratch/ispackman/PFAS_EPR_calcs/benchmark/JChemEd_CF3_radical/CH3_radical_112.5_degrees_IN-PROGRESS/CH3_radical_112.5_degrees.inp
|  1> ! UKS TightSCF wB97x-D3 def2-TZVPD xyzfile opt freq
|  2> 
|  3> # CH3 radical 112.5 degrees fixed
|  4> 
|  5> %maxcore 1000
|  6> %pal
|  7> nprocs 18
|  8> end
|  9> 
| 10> %geom Constraints
| 11>         { A * 0 * C }
| 12>     end
| 13> end
| 14> * xyz 0 2
| 15> C 0.00 0.00 0.00
| 16> H 1.0369062817 0.0000000000 -0.3020353671
| 17> H -0.5184531408 0.8979871813 -0.3020353671
| 18> H -0.5184531408 -0.8979871813 -0.3020353671
| 19> **                         ****END OF INPUT****
================================================================================

                       *****************************
                       * Geometry Optimization Run *
                       *****************************

Geometry optimization settings:
Update method            Update   .... BFGS
Choice of coordinates    CoordSys .... Z-matrix Internals
Initial Hessian          InHess   .... Almoef's Model

Convergence Tolerances:
Energy Change            TolE     ....  5.0000e-06 Eh
Max. Gradient            TolMAXG  ....  3.0000e-04 Eh/bohr
RMS Gradient             TolRMSG  ....  1.0000e-04 Eh/bohr
Max. Displacement        TolMAXD  ....  4.0000e-03 bohr
RMS Displacement         TolRMSD  ....  2.0000e-03 bohr
Strict Convergence                ....  False
------------------------------------------------------------------------------
                        ORCA OPTIMIZATION COORDINATE SETUP
------------------------------------------------------------------------------

The optimization will be done in new redundant internal coordinates
Making redundant internal coordinates   ...  (new redundants) done
Evaluating the initial hessian          ...  (Almloef) done
Evaluating the coordinates              ...  done
Calculating the B-matrix                .... done
Calculating the G-matrix                .... done
Diagonalizing the G-matrix              .... done
Imposing constraints:
 Iter   0:  RMS(Cart)=    0.0000000000 RMS(Int)=    0.0000000000
CONVERGED
Will constrain atom 0 coordinate 1 
Will constrain atom 0 coordinate 2 
Will constrain atom 1 coordinate 2 
The first mode is                       ....    1
The number of degrees of freedom        ....    6
Storing new coordinates                 .... done

    -----------------------------------------------------------------
                    Redundant Internal Coordinates


    -----------------------------------------------------------------
         Definition                    Initial Value    Approx d2E/dq
    -----------------------------------------------------------------
      1. B(H   1,C   0)                  1.0800         0.373575   
      2. B(H   2,C   0)                  1.0800         0.373575   
      3. B(H   3,C   0)                  1.0800         0.373575   
      4. A(H   2,C   0,H   3)          112.5000         0.294224 C 
      5. A(H   1,C   0,H   2)          112.5000         0.294224 C 
      6. A(H   1,C   0,H   3)          112.5000         0.294224 C 
      7. I(H   1,H   3,H   2,C   0)     46.4639         0.007118   
    -----------------------------------------------------------------

Number of atoms                         .... 4
Number of degrees of freedom            .... 7

         *************************************************************
         *                GEOMETRY OPTIMIZATION CYCLE   1            *
         *************************************************************
---------------------------------
CARTESIAN COORDINATES (ANGSTROEM)
---------------------------------
  C      0.000000    0.000000    0.000000
  H      1.036906    0.000000   -0.302035
  H     -0.518453    0.897987   -0.302035
  H     -0.518453   -0.897987   -0.302035

----------------------------
CARTESIAN COORDINATES (A.U.)
----------------------------
  NO LB      ZA    FRAG     MASS         X           Y           Z
   0 C     6.0000    0    12.011    0.000000    0.000000    0.000000
   1 H     1.0000    0     1.008    1.959469    0.000000   -0.570764
   2 H     1.0000    0     1.008   -0.979734    1.696950   -0.570764
   3 H     1.0000    0     1.008   -0.979734   -1.696950   -0.570764

--------------------------------
INTERNAL COORDINATES (ANGSTROEM)
--------------------------------
 C      0   0   0     0.000000000000     0.00000000     0.00000000
 H      1   0   0     1.080000000004     0.00000000     0.00000000
 H      1   2   0     1.079999999983   112.50000000     0.00000000
 H      1   2   3     1.079999999983   112.50000000   128.30988411

---------------------------
INTERNAL COORDINATES (A.U.)
---------------------------
 C      0   0   0     0.000000000000     0.00000000     0.00000000
 H      1   0   0     2.040904224642     0.00000000     0.00000000
 H      1   2   0     2.040904224603   112.50000000     0.00000000
 H      1   2   3     2.040904224603   112.50000000   128.30988411

---------------------
BASIS SET INFORMATION
---------------------
There are 2 groups of distinct atoms

 Group   1 Type C   : 12s6p3d1f contracted to 6s3p3d1f pattern {621111/411/111/1}
 Group   2 Type H   : 5s2p contracted to 3s2p pattern {311/11}

Atom   0C    basis set group =>   1
Atom   1H    basis set group =>   2
Atom   2H    basis set group =>   2
Atom   3H    basis set group =>   2
---------------------------------
AUXILIARY/J BASIS SET INFORMATION
---------------------------------
There are 2 groups of distinct atoms

 Group   1 Type C   : 12s5p4d2f1g contracted to 6s4p3d1f1g pattern {711111/2111/211/2/1}
 Group   2 Type H   : 5s2p1d contracted to 3s1p1d pattern {311/2/1}

Atom   0C    basis set group =>   1
Atom   1H    basis set group =>   2
Atom   2H    basis set group =>   2
Atom   3H    basis set group =>   2


           ************************************************************
           *        Program running with 18 parallel MPI-processes    *
           *              working on a common directory               *
           ************************************************************
------------------------------------------------------------------------------
                           ORCA GTO INTEGRAL CALCULATION
                           -- RI-GTO INTEGRALS CHOSEN --
------------------------------------------------------------------------------
------------------------------------------------------------------------------
                   ___                                                        
                  /   \      - P O W E R E D   B Y -                         
                 /     \                                                     
                 |  |  |   _    _      __       _____    __    __             
                 |  |  |  | |  | |    /  \     |  _  \  |  |  /  |          
                  \  \/   | |  | |   /    \    | | | |  |  | /  /          
                 / \  \   | |__| |  /  /\  \   | |_| |  |  |/  /          
                |  |  |   |  __  | /  /__\  \  |    /   |      \           
                |  |  |   | |  | | |   __   |  |    \   |  |\   \          
                \     /   | |  | | |  |  |  |  | |\  \  |  | \   \       
                 \___/    |_|  |_| |__|  |__|  |_| \__\ |__|  \__/        
                                                                              
                      - O R C A' S   B I G   F R I E N D -                    
                                      &                                       
                       - I N T E G R A L  F E E D E R -                       
                                                                              
 v1 FN, 2020, v2 2021                                                         
------------------------------------------------------------------------------


Reading SHARK input file /beegfs/scratch/ispackman/PFAS_EPR_calcs/benchmark/JChemEd_CF3_radical/CH3_radical_112.5_degrees_IN-PROGRESS/CH3_radical_112.5_degrees.SHARKINP.tmp ... ok
----------------------
SHARK INTEGRAL PACKAGE
----------------------

Number of atoms                             ...      4
Number of basis functions                   ...     64
Number of shells                            ...     28
Maximum angular momentum                    ...      3
Integral batch strategy                     ... SHARK/LIBINT Hybrid
RI-J (if used) integral strategy            ... SPLIT-RIJ (Revised 2003 algorithm where possible)
Printlevel                                  ...      1
Contraction scheme used                     ... SEGMENTED contraction
Coulomb Range Separation                    ... NOT USED
Exchange Range Separation                   ... Long Range
   Mu parameter                             ...  0.250000
   Scaling (regular/separated)              ...  0.195728  0.804272
Finite Nucleus Model                        ... NOT USED
Auxiliary Coulomb fitting basis             ... AVAILABLE
   # of basis functions in Aux-J            ...     82
   # of shells in Aux-J                     ...     30
   Maximum angular momentum in Aux-J        ...      4
Auxiliary J/K fitting basis                 ... NOT available
Auxiliary Correlation fitting basis         ... NOT available
Auxiliary 'external' fitting basis          ... NOT available
Integral threshold                          ...     2.500000e-11
Primitive cut-off                           ...     2.500000e-12
Primitive pair pre-selection threshold      ...     2.500000e-12

Calculating pre-screening integrals         ... done (  0.0 sec) Dimension = 28
Organizing shell pair data                  ... done (  0.0 sec)
Shell pair information
Total number of shell pairs                 ...       406
Shell pairs after pre-screening             ...       406
Total number of primitive shell pairs       ...       977
Primitive shell pairs kept                  ...       944
          la=0 lb=0:    120 shell pairs
          la=1 lb=0:    135 shell pairs
          la=1 lb=1:     45 shell pairs
          la=2 lb=0:     45 shell pairs
          la=2 lb=1:     27 shell pairs
          la=2 lb=2:      6 shell pairs
          la=3 lb=0:     15 shell pairs
          la=3 lb=1:      9 shell pairs
          la=3 lb=2:      3 shell pairs
          la=3 lb=3:      1 shell pairs

Calculating one electron integrals          ... done (  0.0 sec)
Calculating RI/J V-Matrix + Cholesky decomp.... done (  0.0 sec)
Calculating Nuclear repulsion               ... done (  0.0 sec) ENN=      9.703559050900 Eh

SHARK setup successfully completed in   0.2 seconds

Maximum memory used throughout the entire GTOINT-calculation: 14.0 MB


           ************************************************************
           *        Program running with 18 parallel MPI-processes    *
           *              working on a common directory               *
           ************************************************************
-------------------------------------------------------------------------------
                                 ORCA SCF
-------------------------------------------------------------------------------

------------
SCF SETTINGS
------------
Hamiltonian:
 Density Functional     Method          .... DFT(GTOs)
 Exchange Functional    Exchange        .... WB97X-D3
 Correlation Functional Correlation     .... WB97X-D3
 Gradients option       PostSCFGGA      .... off
 Hybrid DFT is turned on
   Fraction HF Exchange ScalHFX         ....  0.195728
   Scaling of DF-GGA-X  ScalDFX         ....  0.000000
   Scaling of DF-GGA-C  ScalDFC         ....  1.000000
   Scaling of DF-LDA-C  ScalLDAC        ....  1.000000
   Perturbative correction              ....  0.000000
   Density functional embedding theory  .... OFF
 Long-range corrected/Screened/Range-Separated Hybrid DFT is turned on
   Amount of maximum screened exact exchange              ....  0.804272
   Range separation parameter mu (erf(mu*r12)/r12)        ....  0.250000
 RI-approximation to the Coulomb term is turned on
   Number of AuxJ basis functions       .... 82
   RIJ-COSX (HFX calculated with COS-X)).... on


General Settings:
 Integral files         IntName         .... /beegfs/scratch/ispackman/PFAS_EPR_calcs/benchmark/JChemEd_CF3_radical/CH3_radical_112.5_degrees_IN-PROGRESS/CH3_radical_112.5_degrees
 Hartree-Fock type      HFTyp           .... UHF
 Total Charge           Charge          ....    0
 Multiplicity           Mult            ....    2
 Number of Electrons    NEL             ....    9
 Basis Dimension        Dim             ....   64
 Nuclear Repulsion      ENuc            ....      9.7035590509 Eh

Convergence Acceleration:
 DIIS                   CNVDIIS         .... on
   Start iteration      DIISMaxIt       ....    12
   Startup error        DIISStart       ....  0.200000
   # of expansion vecs  DIISMaxEq       ....     5
   Bias factor          DIISBfac        ....   1.050
   Max. coefficient     DIISMaxC        ....  10.000
 Trust-Rad. Augm. Hess. CNVTRAH         .... auto
   Auto Start mean grad. ratio tolernc. ....  1.125000
   Auto Start start iteration           ....    20
   Auto Start num. interpolation iter.  ....    10
   Max. Number of Micro iterations      ....    16
   Max. Number of Macro iterations      .... Maxiter - #DIIS iter
   Number of Davidson start vectors     ....     2
   Converg. threshold I  (grad. norm)   ....   1.000e-05
   Converg. threshold II (energy diff.) ....   1.000e-08
   Grad. Scal. Fac. for Micro threshold ....   0.100
   Minimum threshold for Micro iter.    ....   0.010
   NR start threshold (gradient norm)   ....   0.001
   Initial trust radius                 ....   0.400
   Minimum AH scaling param. (alpha)    ....   1.000
   Maximum AH scaling param. (alpha)    .... 1000.000
   Orbital update algorithm             .... Taylor
   White noise on init. David. guess    .... on
   Maximum white noise                  ....   0.010
   Quad. conv. algorithm                .... NR
 SOSCF                  CNVSOSCF        .... off
 Level Shifting         CNVShift        .... on
   Level shift para.    LevelShift      ....    0.2500
   Turn off err/grad.   ShiftErr        ....    0.0010
 Zerner damping         CNVZerner       .... off
 Static damping         CNVDamp         .... on
   Fraction old density DampFac         ....    0.7000
   Max. Damping (<1)    DampMax         ....    0.9800
   Min. Damping (>=0)   DampMin         ....    0.0000
   Turn off err/grad.   DampErr         ....    0.1000
 Fernandez-Rico         CNVRico         .... off

SCF Procedure:
 Maximum # iterations   MaxIter         ....   125
 SCF integral mode      SCFMode         .... Direct
   Integral package                     .... SHARK and LIBINT hybrid scheme
 Reset frequency        DirectResetFreq ....    20
 Integral Threshold     Thresh          ....  2.500e-11 Eh
 Primitive CutOff       TCut            ....  2.500e-12 Eh

Convergence Tolerance:
 Convergence Check Mode ConvCheckMode   .... Total+1el-Energy
 Convergence forced     ConvForced      .... 0
 Energy Change          TolE            ....  1.000e-08 Eh
 1-El. energy change                    ....  1.000e-05 Eh
 DIIS Error             TolErr          ....  5.000e-07


Diagonalization of the overlap matrix:
Smallest eigenvalue                        ... 5.659e-05
Time for diagonalization                   ...    0.002 sec
Threshold for overlap eigenvalues          ... 1.000e-08
Number of eigenvalues below threshold      ... 0
Time for construction of square roots      ...    0.011 sec
Total time needed                          ...    0.014 sec

Time for model grid setup =    0.041 sec

------------------------------
INITIAL GUESS: MODEL POTENTIAL
------------------------------
Loading Hartree-Fock densities                     ... done
Calculating cut-offs                               ... done
Initializing the effective Hamiltonian             ... done
Setting up the integral package (SHARK)            ... done
Starting the Coulomb interaction                   ... done (   0.1 sec)
Reading the grid                                   ... done
Mapping shells                                     ... done
Starting the XC term evaluation                    ... done (   0.0 sec)
  promolecular density results
     # of electrons  =      8.998118414
     EX              =     -5.933493645
     EC              =     -0.259279312
     EX+EC           =     -6.192772957
Transforming the Hamiltonian                       ... done (   0.0 sec)
Diagonalizing the Hamiltonian                      ... done (   0.0 sec)
Back transforming the eigenvectors                 ... done (   0.0 sec)
Now organizing SCF variables                       ... done
                      ------------------
                      INITIAL GUESS DONE (   0.1 sec)
                      ------------------
-------------------
DFT GRID GENERATION
-------------------

General Integration Accuracy     IntAcc      ... 4.388
Radial Grid Type                 RadialGrid  ... OptM3 with GC (2021)
Angular Grid (max. ang.)         AngularGrid ... 4 (Lebedev-302)
Angular grid pruning method      GridPruning ... 4 (adaptive)
Weight generation scheme         WeightScheme... Becke
Basis function cutoff            BFCut       ... 1.0000e-11
Integration weight cutoff        WCut        ... 1.0000e-14
Angular grids for H and He will be reduced by one unit
Partially contracted basis set               ... off
Rotationally invariant grid construction     ... off

Total number of grid points                  ...    17035
Total number of batches                      ...      268
Average number of points per batch           ...       63
Average number of grid points per atom       ...     4259
Time for grid setup =    0.091 sec

--------------------
COSX GRID GENERATION
--------------------

GRIDX 1
-------
General Integration Accuracy     IntAcc      ... 3.816
Radial Grid Type                 RadialGrid  ... OptM3 with GC (2021)
Angular Grid (max. ang.)         AngularGrid ... 1 (Lebedev-50)
Angular grid pruning method      GridPruning ... 4 (adaptive)
Weight generation scheme         WeightScheme... Becke
Basis function cutoff            BFCut       ... 1.0000e-11
Integration weight cutoff        WCut        ... 1.0000e-14
Angular grids for H and He will be reduced by one unit
Partially contracted basis set               ... on
Rotationally invariant grid construction     ... off

Total number of grid points                  ...     2150
Total number of batches                      ...       36
Average number of points per batch           ...       59
Average number of grid points per atom       ...      538
UseSFitting                                  ... on

GRIDX 2
-------
General Integration Accuracy     IntAcc      ... 4.020
Radial Grid Type                 RadialGrid  ... OptM3 with GC (2021)
Angular Grid (max. ang.)         AngularGrid ... 2 (Lebedev-110)
Angular grid pruning method      GridPruning ... 4 (adaptive)
Weight generation scheme         WeightScheme... Becke
Basis function cutoff            BFCut       ... 1.0000e-11
Integration weight cutoff        WCut        ... 1.0000e-14
Angular grids for H and He will be reduced by one unit
Partially contracted basis set               ... on
Rotationally invariant grid construction     ... off

Total number of grid points                  ...     5068
Total number of batches                      ...       81
Average number of points per batch           ...       62
Average number of grid points per atom       ...     1267
UseSFitting                                  ... on

GRIDX 3
-------
General Integration Accuracy     IntAcc      ... 4.338
Radial Grid Type                 RadialGrid  ... OptM3 with GC (2021)
Angular Grid (max. ang.)         AngularGrid ... 3 (Lebedev-194)
Angular grid pruning method      GridPruning ... 4 (adaptive)
Weight generation scheme         WeightScheme... Becke
Basis function cutoff            BFCut       ... 1.0000e-11
Integration weight cutoff        WCut        ... 1.0000e-14
Angular grids for H and He will be reduced by one unit
Partially contracted basis set               ... on
Rotationally invariant grid construction     ... off

Total number of grid points                  ...    11741
Total number of batches                      ...      186
Average number of points per batch           ...       63
Average number of grid points per atom       ...     2935
UseSFitting                                  ... on

Time for X-Grid setup             =    0.255 sec

--------------
SCF ITERATIONS
--------------
ITER       Energy         Delta-E        Max-DP      RMS-DP      [F,P]     Damp
               ***  Starting incremental Fock matrix formation  ***
  0    -39.7962695370   0.000000000000 0.02811109  0.00080371  0.0782789 0.7000
  1    -39.8100605996  -0.013791062547 0.02845989  0.00070857  0.0499891 0.7000
                               ***Turning on DIIS***
  2    -39.8177854936  -0.007724894016 0.06502394  0.00162121  0.0286388 0.0000
  3    -39.8309539945  -0.013168500900 0.01827961  0.00047578  0.0196645 0.0000
  4    -39.8325588095  -0.001604815062 0.00774022  0.00015221  0.0035605 0.0000
  5    -39.8326267034  -0.000067893899 0.00614040  0.00011655  0.0015813 0.0000
  6    -39.8326466887  -0.000019985269 0.00573311  0.00010717  0.0006392 0.0000
               *** Restarting incremental Fock matrix formation ***
                                   *** Resetting DIIS ***
  7    -39.8326580804  -0.000011391664 0.00094688  0.00001688  0.0000823 0.0000
  8    -39.8326582079  -0.000000127565 0.00041648  0.00000778  0.0000403 0.0000
  9    -39.8326582411  -0.000000033188 0.00001606  0.00000081  0.0000155 0.0000
 10    -39.8326582433  -0.000000002142 0.00000927  0.00000024  0.0000055 0.0000
                 **** Energy Check signals convergence ****

               *****************************************************
               *                     SUCCESS                       *
               *           SCF CONVERGED AFTER  11 CYCLES          *
               *****************************************************

Old exchange energy                            =     -2.173715668 Eh
New exchange energy                            =     -2.173721894 Eh
Exchange energy change after final integration =     -0.000006226 Eh
Total energy after final integration           =    -39.832664470 Eh
Final COS-X integration done in                =     0.124 sec

----------------
TOTAL SCF ENERGY
----------------

Total Energy       :          -39.83266447 Eh           -1083.90190 eV

Components:
Nuclear Repulsion  :            9.70355905 Eh             264.04727 eV
Electronic Energy  :          -49.53622352 Eh           -1347.94917 eV
One Electron Energy:          -71.70019984 Eh           -1951.06163 eV
Two Electron Energy:           22.16397632 Eh             603.11246 eV
Max COSX asymmetry :            0.00000023 Eh               0.00001 eV

Virial components:
Potential Energy   :          -79.47860343 Eh           -2162.72275 eV
Kinetic Energy     :           39.64593897 Eh            1078.82085 eV
Virial Ratio       :            2.00470983


DFT components:
N(Alpha)           :        5.000000172756 electrons
N(Beta)            :        4.000000602533 electrons
N(Total)           :        9.000000775290 electrons
E(XC)              :       -4.314617582903 Eh       
DFET-embed. en.    :        0.000000000000 Eh       

---------------
SCF CONVERGENCE
---------------

  Last Energy change         ...   -1.8712e-10  Tolerance :   1.0000e-08
  Last MAX-Density change    ...    0.0000e+00  Tolerance :   1.0000e-07
  Last RMS-Density change    ...    0.0000e+00  Tolerance :   5.0000e-09
  Last DIIS Error            ...    1.2357e-06  Tolerance :   5.0000e-07

             **** THE GBW FILE WAS UPDATED (/beegfs/scratch/ispackman/PFAS_EPR_calcs/benchmark/JChemEd_CF3_radical/CH3_radical_112.5_degrees_IN-PROGRESS/CH3_radical_112.5_degrees.gbw) ****
             **** DENSITY /beegfs/scratch/ispackman/PFAS_EPR_calcs/benchmark/JChemEd_CF3_radical/CH3_radical_112.5_degrees_IN-PROGRESS/CH3_radical_112.5_degrees.scfp WAS UPDATED ****
             **** ENERGY FILE WAS UPDATED (/beegfs/scratch/ispackman/PFAS_EPR_calcs/benchmark/JChemEd_CF3_radical/CH3_radical_112.5_degrees_IN-PROGRESS/CH3_radical_112.5_degrees.en.tmp) ****
----------------------
UHF SPIN CONTAMINATION
----------------------

Warning: in a DFT calculation there is little theoretical justification to 
         calculate <S**2> as in Hartree-Fock theory. We will do it anyways
         but you should keep in mind that the values have only limited relevance

Expectation value of <S**2>     :     0.753120
Ideal value S*(S+1) for S=0.5   :     0.750000
Deviation                       :     0.003120

             **** THE GBW FILE WAS UPDATED (/beegfs/scratch/ispackman/PFAS_EPR_calcs/benchmark/JChemEd_CF3_radical/CH3_radical_112.5_degrees_IN-PROGRESS/CH3_radical_112.5_degrees.gbw) ****
             **** DENSITY /beegfs/scratch/ispackman/PFAS_EPR_calcs/benchmark/JChemEd_CF3_radical/CH3_radical_112.5_degrees_IN-PROGRESS/CH3_radical_112.5_degrees.scfp WAS UPDATED ****
----------------
ORBITAL ENERGIES
----------------
                 SPIN UP ORBITALS
  NO   OCC          E(Eh)            E(eV) 
   0   1.0000     -10.289007      -279.9781 
   1   1.0000      -0.807995       -21.9867 
   2   1.0000      -0.512310       -13.9407 
   3   1.0000      -0.512281       -13.9399 
   4   1.0000      -0.349858        -9.5201 
   5   0.0000       0.076278         2.0756 
   6   0.0000       0.161458         4.3935 
   7   0.0000       0.161468         4.3938 
   8   0.0000       0.198338         5.3970 
   9   0.0000       0.198348         5.3973 
  10   0.0000       0.200380         5.4526 
  11   0.0000       0.223185         6.0732 
  12   0.0000       0.254607         6.9282 
  13   0.0000       0.254614         6.9284 
  14   0.0000       0.310450         8.4478 
  15   0.0000       0.362014         9.8509 
  16   0.0000       0.362019         9.8510 
  17   0.0000       0.369333        10.0501 
  18   0.0000       0.372448        10.1348 
  19   0.0000       0.386952        10.5295 
  20   0.0000       0.386953        10.5295 
  21   0.0000       0.426116        11.5952 
  22   0.0000       0.426124        11.5954 
  23   0.0000       0.515905        14.0385 
  24   0.0000       0.546342        14.8667 
  25   0.0000       0.546344        14.8668 
  26   0.0000       0.547620        14.9015 
  27   0.0000       0.780369        21.2349 
  28   0.0000       0.798331        21.7237 
  29   0.0000       0.798334        21.7238 
  30   0.0000       0.882162        24.0048 
  31   0.0000       0.882175        24.0052 
  32   0.0000       1.023315        27.8458 
  33   0.0000       1.114387        30.3240 
  34   0.0000       1.114454        30.3258 
  35   0.0000       1.604431        43.6588 
  36   0.0000       1.694702        46.1152 
  37   0.0000       1.742443        47.4143 
  38   0.0000       1.793936        48.8155 
  39   0.0000       1.793971        48.8164 
  40   0.0000       1.921965        52.2993 
  41   0.0000       1.922021        52.3008 
  42   0.0000       2.106763        57.3279 
  43   0.0000       2.264301        61.6148 
  44   0.0000       2.375859        64.6504 
  45   0.0000       2.375956        64.6530 
  46   0.0000       2.488091        67.7044 
  47   0.0000       2.488188        67.7070 
  48   0.0000       2.717907        73.9580 
  49   0.0000       2.717956        73.9593 
  50   0.0000       2.833305        77.0982 
  51   0.0000       3.057894        83.2095 
  52   0.0000       3.163510        86.0835 
  53   0.0000       3.163552        86.0846 
  54   0.0000       3.294410        89.6455 
  55   0.0000       3.294417        89.6456 
  56   0.0000       3.539660        96.3190 
  57   0.0000       3.553940        96.7076 
  58   0.0000       3.578547        97.3772 
  59   0.0000       3.578584        97.3782 
  60   0.0000       4.371860       118.9644 
  61   0.0000       4.371908       118.9657 
  62   0.0000       4.638146       126.2104 
  63   0.0000      22.198834       604.0610 

                 SPIN DOWN ORBITALS
  NO   OCC          E(Eh)            E(eV) 
   0   1.0000     -10.278391      -279.6892 
   1   1.0000      -0.766676       -20.8623 
   2   1.0000      -0.498601       -13.5676 
   3   1.0000      -0.498530       -13.5657 
   4   0.0000      -0.005456        -0.1485 
   5   0.0000       0.085911         2.3378 
   6   0.0000       0.165948         4.5157 
   7   0.0000       0.165961         4.5160 
   8   0.0000       0.200793         5.4639 
   9   0.0000       0.200804         5.4642 
  10   0.0000       0.231761         6.3066 
  11   0.0000       0.245969         6.6932 
  12   0.0000       0.259949         7.0736 
  13   0.0000       0.259956         7.0738 
  14   0.0000       0.321680         8.7534 
  15   0.0000       0.371999        10.1226 
  16   0.0000       0.372018        10.1231 
  17   0.0000       0.372516        10.1367 
  18   0.0000       0.376293        10.2395 
  19   0.0000       0.393828        10.7166 
  20   0.0000       0.393831        10.7167 
  21   0.0000       0.435242        11.8435 
  22   0.0000       0.435243        11.8436 
  23   0.0000       0.541630        14.7385 
  24   0.0000       0.547939        14.9102 
  25   0.0000       0.547945        14.9103 
  26   0.0000       0.563727        15.3398 
  27   0.0000       0.790315        21.5056 
  28   0.0000       0.807693        21.9784 
  29   0.0000       0.807700        21.9786 
  30   0.0000       0.909070        24.7371 
  31   0.0000       0.909078        24.7373 
  32   0.0000       1.045966        28.4622 
  33   0.0000       1.121211        30.5097 
  34   0.0000       1.121289        30.5118 
  35   0.0000       1.666935        45.3596 
  36   0.0000       1.695137        46.1270 
  37   0.0000       1.760361        47.9019 
  38   0.0000       1.803436        49.0740 
  39   0.0000       1.803497        49.0757 
  40   0.0000       1.937712        52.7278 
  41   0.0000       1.937722        52.7281 
  42   0.0000       2.120439        57.7001 
  43   0.0000       2.269560        61.7579 
  44   0.0000       2.386702        64.9455 
  45   0.0000       2.386884        64.9504 
  46   0.0000       2.495683        67.9110 
  47   0.0000       2.495805        67.9143 
  48   0.0000       2.734056        74.3974 
  49   0.0000       2.734120        74.3992 
  50   0.0000       2.871248        78.1306 
  51   0.0000       3.099106        84.3310 
  52   0.0000       3.216934        87.5372 
  53   0.0000       3.216970        87.5382 
  54   0.0000       3.330065        90.6157 
  55   0.0000       3.330174        90.6186 
  56   0.0000       3.555784        96.7578 
  57   0.0000       3.593210        97.7762 
  58   0.0000       3.617764        98.4444 
  59   0.0000       3.617827        98.4461 
  60   0.0000       4.393269       119.5469 
  61   0.0000       4.393322       119.5484 
  62   0.0000       4.663389       126.8973 
  63   0.0000      22.219233       604.6161 

                    ********************************
                    * MULLIKEN POPULATION ANALYSIS *
                    ********************************

--------------------------------------------
MULLIKEN ATOMIC CHARGES AND SPIN POPULATIONS
--------------------------------------------
   0 C :   -0.715589    0.890361
   1 H :    0.238330    0.036515
   2 H :    0.238628    0.036562
   3 H :    0.238632    0.036562
Sum of atomic charges         :    0.0000000
Sum of atomic spin populations:    1.0000000

-----------------------------------------------------
MULLIKEN REDUCED ORBITAL CHARGES AND SPIN POPULATIONS
-----------------------------------------------------
CHARGE
  0 C s       :     3.404504  s :     3.404504
      pz      :     0.929563  p :     3.273478
      px      :     1.171807
      py      :     1.172107
      dz2     :     0.002658  d :     0.036197
      dxz     :     0.007509
      dyz     :     0.007515
      dx2y2   :     0.009247
      dxy     :     0.009268
      f0      :     0.000377  f :     0.001409
      f+1     :     0.000213
      f-1     :     0.000213
      f+2     :    -0.000093
      f-2     :    -0.000094
      f+3     :     0.000794
      f-3     :     0.000000
  1 H s       :     0.714160  s :     0.714160
      pz      :     0.022965  p :     0.047511
      px      :     0.021685
      py      :     0.002861
  2 H s       :     0.713935  s :     0.713935
      pz      :     0.022898  p :     0.047438
      px      :     0.007554
      py      :     0.016986
  3 H s       :     0.713932  s :     0.713932
      pz      :     0.022898  p :     0.047437
      px      :     0.007554
      py      :     0.016985

SPIN
  0 C s       :    -0.014907  s :    -0.014907
      pz      :     0.891179  p :     0.912054
      px      :     0.010456
      py      :     0.010419
      dz2     :    -0.002589  d :    -0.005667
      dxz     :    -0.001823
      dyz     :    -0.001821
      dx2y2   :     0.000288
      dxy     :     0.000279
      f0      :    -0.000253  f :    -0.001119
      f+1     :    -0.000350
      f-1     :    -0.000351
      f+2     :    -0.000014
      f-2     :    -0.000013
      f+3     :    -0.000139
      f-3     :    -0.000000
  1 H s       :     0.009389  s :     0.009389
      pz      :     0.021467  p :     0.027125
      px      :     0.002459
      py      :     0.003199
  2 H s       :     0.009508  s :     0.009508
      pz      :     0.021397  p :     0.027054
      px      :     0.003019
      py      :     0.002638
  3 H s       :     0.009508  s :     0.009508
      pz      :     0.021397  p :     0.027055
      px      :     0.003019
      py      :     0.002638


                     *******************************
                     * LOEWDIN POPULATION ANALYSIS *
                     *******************************

-------------------------------------------
LOEWDIN ATOMIC CHARGES AND SPIN POPULATIONS
-------------------------------------------
   0 C :    0.059616    0.833599
   1 H :   -0.019881    0.055485
   2 H :   -0.019868    0.055458
   3 H :   -0.019868    0.055458

----------------------------------------------------
LOEWDIN REDUCED ORBITAL CHARGES AND SPIN POPULATIONS
----------------------------------------------------
CHARGE
  0 C s       :     2.913256  s :     2.913256
      pz      :     0.781431  p :     2.903088
      px      :     1.060853
      py      :     1.060804
      dz2     :     0.009642  d :     0.114388
      dxz     :     0.012519
      dyz     :     0.012516
      dx2y2   :     0.039848
      dxy     :     0.039864
      f0      :     0.000874  f :     0.009652
      f+1     :     0.000797
      f-1     :     0.000797
      f+2     :     0.001925
      f-2     :     0.001925
      f+3     :     0.003334
      f-3     :     0.000000
  1 H s       :     0.760286  s :     0.760286
      pz      :     0.067720  p :     0.259595
      px      :     0.123867
      py      :     0.068009
  2 H s       :     0.760292  s :     0.760292
      pz      :     0.067710  p :     0.259576
      px      :     0.081958
      py      :     0.109908
  3 H s       :     0.760292  s :     0.760292
      pz      :     0.067710  p :     0.259576
      px      :     0.081958
      py      :     0.109908

SPIN
  0 C s       :     0.058047  s :     0.058047
      pz      :     0.751911  p :     0.784172
      px      :     0.016111
      py      :     0.016150
      dz2     :    -0.000743  d :    -0.007696
      dxz     :    -0.001526
      dyz     :    -0.001522
      dx2y2   :    -0.001945
      dxy     :    -0.001960
      f0      :    -0.000200  f :    -0.000924
      f+1     :    -0.000306
      f-1     :    -0.000307
      f+2     :    -0.000096
      f-2     :    -0.000096
      f+3     :     0.000080
      f-3     :    -0.000000
  1 H s       :    -0.008467  s :    -0.008467
      pz      :     0.061298  p :     0.063951
      px      :     0.003234
      py      :    -0.000581
  2 H s       :    -0.008473  s :    -0.008473
      pz      :     0.061277  p :     0.063931
      px      :     0.000378
      py      :     0.002276
  3 H s       :    -0.008473  s :    -0.008473
      pz      :     0.061277  p :     0.063931
      px      :     0.000378
      py      :     0.002276


                      *****************************
                      * MAYER POPULATION ANALYSIS *
                      *****************************

  NA   - Mulliken gross atomic population
  ZA   - Total nuclear charge
  QA   - Mulliken gross atomic charge
  VA   - Mayer's total valence
  BVA  - Mayer's bonded valence
  FA   - Mayer's free valence

  ATOM       NA         ZA         QA         VA         BVA        FA
  0 C      6.7156     6.0000    -0.7156     3.7618     2.9337     0.8280
  1 H      0.7617     1.0000     0.2383     1.0053     1.0039     0.0014
  2 H      0.7614     1.0000     0.2386     1.0049     1.0035     0.0014
  3 H      0.7614     1.0000     0.2386     1.0049     1.0035     0.0014

  Mayer bond orders larger than 0.100000
B(  0-C ,  1-H ) :   0.9782 B(  0-C ,  2-H ) :   0.9778 B(  0-C ,  3-H ) :   0.9778 


-------
TIMINGS
-------

Total SCF time: 0 days 0 hours 0 min 7 sec 

Total time                  ....       7.337 sec
Sum of individual times     ....       6.757 sec  ( 92.1%)

Fock matrix formation       ....       5.620 sec  ( 76.6%)
  Split-RI-J                ....       0.753 sec  ( 13.4% of F)
  Chain of spheres X        ....       1.343 sec  ( 23.9% of F)
  XC integration            ....       1.052 sec  ( 18.7% of F)
    Basis function eval.    ....       0.052 sec  (  4.9% of XC)
    Density eval.           ....       0.050 sec  (  4.8% of XC)
    XC-Functional eval.     ....       0.052 sec  (  5.0% of XC)
    XC-Potential eval.      ....       0.075 sec  (  7.1% of XC)
Diagonalization             ....       0.177 sec  (  2.4%)
Density matrix formation    ....       0.009 sec  (  0.1%)
Population analysis         ....       0.131 sec  (  1.8%)
Initial guess               ....       0.102 sec  (  1.4%)
Orbital Transformation      ....       0.000 sec  (  0.0%)
Orbital Orthonormalization  ....       0.000 sec  (  0.0%)
DIIS solution               ....       0.330 sec  (  4.5%)
Grid generation             ....       0.388 sec  (  5.3%)

Maximum memory used throughout the entire SCF-calculation: 58.5 MB


-------------------------------------------------------------------------------
                          DFT DISPERSION CORRECTION                            
                                                                               
                              DFTD3 V3.1  Rev 1                                
                              USING zero damping                               
-------------------------------------------------------------------------------
The omegaB97X-D3 functional is recognized. Fit by Chai et al.
Active option DFTDOPT                   ...         3   

molecular C6(AA) [au] = 106.961449 


            DFT-D V3
 parameters
 s6 scaling factor         :     1.0000 
 rs6 scaling factor        :     1.2810 
 s8 scaling factor         :     1.0000 
 rs8 scaling factor        :     1.0940 
 Damping factor alpha6     :    14.0000 
 Damping factor alpha8     :    16.0000 
 ad hoc parameters k1-k3   :    16.0000     1.3333    -4.0000 

 Edisp/kcal,au: -0.008388836061  -0.000013368460 
 E6   /kcal   :  -0.001307929 
 E8   /kcal   :  -0.007080907 
 % E8         :  84.408689267 

-------------------------   ----------------
Dispersion correction           -0.000013368
-------------------------   ----------------


-------------------------   --------------------
FINAL SINGLE POINT ENERGY       -39.832677838154
-------------------------   --------------------



           ************************************************************
           *        Program running with 18 parallel MPI-processes    *
           *              working on a common directory               *
           ************************************************************
------------------------------------------------------------------------------
                         ORCA SCF GRADIENT CALCULATION
------------------------------------------------------------------------------

 ... reading COSX grid (gridx3)
Gradient of the Kohn-Sham DFT energy:
Kohn-Sham wavefunction type      ... UKS
Hartree-Fock exchange scaling    ...    0.196
Number of operators              ...    2
Number of atoms                  ...    4
Basis set dimensions             ...   64
Integral neglect threshold       ... 2.5e-11
Integral primitive cutoff        ... 2.5e-12
SHARK Integral package           ... ON

Nuc. rep. gradient       (SHARK) ... done (  0.0 sec)
HCore & Overlap gradient (SHARK) ... done (  0.0 sec)
RI-J gradient            (SHARK) ... done (  0.1 sec)
COSX-gradient                    ... done (  0.1 sec)
Exchange-correlation gradient    ... done
Dispersion correction            ... done

------------------
CARTESIAN GRADIENT
------------------

WARNING: THERE ARE 3 CONSTRAINED CARTESIAN COORDINATES
   1   C   :    0.000007326   -0.000000020    0.027058502
   2   H   :   -0.007390361    0.000000004   -0.009022205
   3   H   :    0.003708415   -0.006395455   -0.009025370
   4   H   :    0.003708380    0.006395439   -0.009025350

Difference to translation invariance:
           :    0.0000337593   -0.0000000314   -0.0000144224

Difference to rotation invariance:
           :   -0.0000000398   -0.0000212696   -0.0000000383

Norm of the cartesian gradient     ...    0.0337698443
RMS gradient                       ...    0.0097485143
MAX gradient                       ...    0.0270585024

-------
TIMINGS
-------

Total SCF gradient time            ...        0.586 sec

One electron gradient       ....       0.006 sec  (  1.1%)
RI-J Coulomb gradient       ....       0.122 sec  ( 20.8%)
COSX gradient               ....       0.120 sec  ( 20.5%)
XC gradient                 ....       0.065 sec  ( 11.1%)

Maximum memory used throughout the entire SCFGRAD-calculation: 33.6 MB
------------------------------------------------------------------------------
                         ORCA GEOMETRY RELAXATION STEP
------------------------------------------------------------------------------

Reading the OPT-File                    .... done
Getting information on internals        .... done
Copying old internal coords+grads       .... done
Making the new internal coordinates     .... (new redundants).... done
Validating the new internal coordinates .... (new redundants).... done
Calculating the B-matrix                .... done
Calculating the G,G- and P matrices     .... done
Transforming gradient to internals      .... done
Projecting the internal gradient        .... done
Number of atoms                         ....   4
Number of internal coordinates          ....   7
Current Energy                          ....   -39.832677838 Eh
Current gradient norm                   ....     0.033769844 Eh/bohr
Maximum allowed component of the step   ....  0.300
Current trust radius                    ....  0.300
Evaluating the initial hessian          ....  (Almloef) done
Projecting the Hessian                  .... done
Forming the augmented Hessian           .... done
Diagonalizing the augmented Hessian     .... done
Last element of RFO vector              ....  0.999775380
Lowest eigenvalues of augmented Hessian:
 -0.000167957  0.373574723  0.373574723  0.373742680 1000.000000000
Length of the computed step             ....  0.021198855
The final length of the internal step   ....  0.021198855
Converting the step to cartesian space:
 Initial RMS(Int)=    0.0080124139
Transforming coordinates:
 Iter   0:  RMS(Cart)=    0.0059373868 RMS(Int)=    0.0080124139
 Iter   1:  RMS(Cart)=    0.0000000000 RMS(Int)=    0.0000000000
Imposing constraints:
 Iter   0:  RMS(Cart)=    0.0000000003 RMS(Int)=    0.0000000011
CONVERGED
done
Storing new coordinates                 .... done

                                .--------------------.
          ----------------------|Geometry convergence|-------------------------
          Item                value                   Tolerance       Converged
          ---------------------------------------------------------------------
          RMS gradient        0.0029945810            0.0001000000      NO
          MAX gradient        0.0045809475            0.0003000000      NO
          RMS step            0.0080124139            0.0020000000      NO
          MAX step            0.0122569557            0.0040000000      NO
          ........................................................
          Max(Bonds)      0.0065      Max(Angles)    0.00
          Max(Dihed)        0.00      Max(Improp)    0.00
          ---------------------------------------------------------------------

The optimization has not yet converged - more geometry cycles are needed


    ---------------------------------------------------------------------------
                         Redundant Internal Coordinates
                            (Angstroem and degrees)

        Definition                    Value    dE/dq     Step     New-Value
    ----------------------------------------------------------------------------
     1. B(H   1,C   0)                1.0800 -0.004581  0.0065    1.0865   
     2. B(H   2,C   0)                1.0800 -0.004571  0.0065    1.0865   
     3. B(H   3,C   0)                1.0800 -0.004571  0.0065    1.0865   
     4. A(H   2,C   0,H   3)          112.50 -0.012131   -0.00    112.50 C 
     5. A(H   1,C   0,H   2)          112.50 -0.004193   -0.00    112.50 C 
     6. A(H   1,C   0,H   3)          112.50 -0.004193   -0.00    112.50 C 
     7. I(H   1,H   3,H   2,C   0)     46.46  0.018243   -0.00     46.46   
    ----------------------------------------------------------------------------

         *************************************************************
         *                GEOMETRY OPTIMIZATION CYCLE   2            *
         *************************************************************
---------------------------------
CARTESIAN COORDINATES (ANGSTROEM)
---------------------------------
  C     -0.000004   -0.000000    0.001358
  H      1.043130   -0.000000   -0.302489
  H     -0.521563    0.903368   -0.302488
  H     -0.521563   -0.903368   -0.302488

----------------------------
CARTESIAN COORDINATES (A.U.)
----------------------------
  NO LB      ZA    FRAG     MASS         X           Y           Z
   0 C     6.0000    0    12.011   -0.000007   -0.000000    0.002567
   1 H     1.0000    0     1.008    1.971231   -0.000000   -0.571621
   2 H     1.0000    0     1.008   -0.985612    1.707119   -0.571619
   3 H     1.0000    0     1.008   -0.985612   -1.707119   -0.571619

--------------------------------
INTERNAL COORDINATES (ANGSTROEM)
--------------------------------
 C      0   0   0     0.000000000000     0.00000000     0.00000000
 H      1   0   0     1.086486101591     0.00000000     0.00000000
 H      1   2   0     1.086471984511   112.50000001     0.00000000
 H      1   2   3     1.086471964122   112.50000001   128.30988418

---------------------------
INTERNAL COORDINATES (A.U.)
---------------------------
 C      0   0   0     0.000000000000     0.00000000     0.00000000
 H      1   0   0     2.053161180319     0.00000000     0.00000000
 H      1   2   0     2.053134502903   112.50000001     0.00000000
 H      1   2   3     2.053134464374   112.50000001   128.30988418



           ************************************************************
           *        Program running with 18 parallel MPI-processes    *
           *              working on a common directory               *
           ************************************************************
------------------------------------------------------------------------------
                   ___                                                        
                  /   \      - P O W E R E D   B Y -                         
                 /     \                                                     
                 |  |  |   _    _      __       _____    __    __             
                 |  |  |  | |  | |    /  \     |  _  \  |  |  /  |          
                  \  \/   | |  | |   /    \    | | | |  |  | /  /          
                 / \  \   | |__| |  /  /\  \   | |_| |  |  |/  /          
                |  |  |   |  __  | /  /__\  \  |    /   |      \           
                |  |  |   | |  | | |   __   |  |    \   |  |\   \          
                \     /   | |  | | |  |  |  |  | |\  \  |  | \   \       
                 \___/    |_|  |_| |__|  |__|  |_| \__\ |__|  \__/        
                                                                              
                      - O R C A' S   B I G   F R I E N D -                    
                                      &                                       
                       - I N T E G R A L  F E E D E R -                       
                                                                              
 v1 FN, 2020, v2 2021                                                         
------------------------------------------------------------------------------


Reading SHARK input file /beegfs/scratch/ispackman/PFAS_EPR_calcs/benchmark/JChemEd_CF3_radical/CH3_radical_112.5_degrees_IN-PROGRESS/CH3_radical_112.5_degrees.SHARKINP.tmp ... ok
----------------------
SHARK INTEGRAL PACKAGE
----------------------

Number of atoms                             ...      4
Number of basis functions                   ...     64
Number of shells                            ...     28
Maximum angular momentum                    ...      3
Integral batch strategy                     ... SHARK/LIBINT Hybrid
RI-J (if used) integral strategy            ... SPLIT-RIJ (Revised 2003 algorithm where possible)
Printlevel                                  ...      1
Contraction scheme used                     ... SEGMENTED contraction
Coulomb Range Separation                    ... NOT USED
Exchange Range Separation                   ... Long Range
   Mu parameter                             ...  0.250000
   Scaling (regular/separated)              ...  0.195728  0.804272
Finite Nucleus Model                        ... NOT USED
Auxiliary Coulomb fitting basis             ... AVAILABLE
   # of basis functions in Aux-J            ...     82
   # of shells in Aux-J                     ...     30
   Maximum angular momentum in Aux-J        ...      4
Auxiliary J/K fitting basis                 ... NOT available
Auxiliary Correlation fitting basis         ... NOT available
Auxiliary 'external' fitting basis          ... NOT available
Integral threshold                          ...     2.500000e-11
Primitive cut-off                           ...     2.500000e-12
Primitive pair pre-selection threshold      ...     2.500000e-12

Calculating pre-screening integrals         ... done (  0.0 sec) Dimension = 28
Organizing shell pair data                  ... done (  0.0 sec)
Shell pair information
Total number of shell pairs                 ...       406
Shell pairs after pre-screening             ...       406
Total number of primitive shell pairs       ...       977
Primitive shell pairs kept                  ...       944
          la=0 lb=0:    120 shell pairs
          la=1 lb=0:    135 shell pairs
          la=1 lb=1:     45 shell pairs
          la=2 lb=0:     45 shell pairs
          la=2 lb=1:     27 shell pairs
          la=2 lb=2:      6 shell pairs
          la=3 lb=0:     15 shell pairs
          la=3 lb=1:      9 shell pairs
          la=3 lb=2:      3 shell pairs
          la=3 lb=3:      1 shell pairs

Calculating one electron integrals          ... done (  0.0 sec)
Calculating RI/J V-Matrix + Cholesky decomp.... done (  0.0 sec)
Calculating Nuclear repulsion               ... done (  0.0 sec) ENN=      9.645714385916 Eh

SHARK setup successfully completed in   0.2 seconds

Maximum memory used throughout the entire GTOINT-calculation: 14.0 MB


           ************************************************************
           *        Program running with 18 parallel MPI-processes    *
           *              working on a common directory               *
           ************************************************************

Diagonalization of the overlap matrix:
Smallest eigenvalue                        ... 5.894e-05
Time for diagonalization                   ...    0.001 sec
Threshold for overlap eigenvalues          ... 1.000e-08
Number of eigenvalues below threshold      ... 0
Time for construction of square roots      ...    0.016 sec
Total time needed                          ...    0.018 sec

-------------------
DFT GRID GENERATION
-------------------

General Integration Accuracy     IntAcc      ... 4.388
Radial Grid Type                 RadialGrid  ... OptM3 with GC (2021)
Angular Grid (max. ang.)         AngularGrid ... 4 (Lebedev-302)
Angular grid pruning method      GridPruning ... 4 (adaptive)
Weight generation scheme         WeightScheme... Becke
Basis function cutoff            BFCut       ... 1.0000e-11
Integration weight cutoff        WCut        ... 1.0000e-14
Angular grids for H and He will be reduced by one unit
Partially contracted basis set               ... off
Rotationally invariant grid construction     ... off

Total number of grid points                  ...    17037
Total number of batches                      ...      269
Average number of points per batch           ...       63
Average number of grid points per atom       ...     4259
Time for grid setup =    0.095 sec

--------------------
COSX GRID GENERATION
--------------------

GRIDX 1
-------
General Integration Accuracy     IntAcc      ... 3.816
Radial Grid Type                 RadialGrid  ... OptM3 with GC (2021)
Angular Grid (max. ang.)         AngularGrid ... 1 (Lebedev-50)
Angular grid pruning method      GridPruning ... 4 (adaptive)
Weight generation scheme         WeightScheme... Becke
Basis function cutoff            BFCut       ... 1.0000e-11
Integration weight cutoff        WCut        ... 1.0000e-14
Angular grids for H and He will be reduced by one unit
Partially contracted basis set               ... on
Rotationally invariant grid construction     ... off

Total number of grid points                  ...     2152
Total number of batches                      ...       36
Average number of points per batch           ...       59
Average number of grid points per atom       ...      538
UseSFitting                                  ... on

GRIDX 2
-------
General Integration Accuracy     IntAcc      ... 4.020
Radial Grid Type                 RadialGrid  ... OptM3 with GC (2021)
Angular Grid (max. ang.)         AngularGrid ... 2 (Lebedev-110)
Angular grid pruning method      GridPruning ... 4 (adaptive)
Weight generation scheme         WeightScheme... Becke
Basis function cutoff            BFCut       ... 1.0000e-11
Integration weight cutoff        WCut        ... 1.0000e-14
Angular grids for H and He will be reduced by one unit
Partially contracted basis set               ... on
Rotationally invariant grid construction     ... off

Total number of grid points                  ...     5068
Total number of batches                      ...       81
Average number of points per batch           ...       62
Average number of grid points per atom       ...     1267
UseSFitting                                  ... on

GRIDX 3
-------
General Integration Accuracy     IntAcc      ... 4.338
Radial Grid Type                 RadialGrid  ... OptM3 with GC (2021)
Angular Grid (max. ang.)         AngularGrid ... 3 (Lebedev-194)
Angular grid pruning method      GridPruning ... 4 (adaptive)
Weight generation scheme         WeightScheme... Becke
Basis function cutoff            BFCut       ... 1.0000e-11
Integration weight cutoff        WCut        ... 1.0000e-14
Angular grids for H and He will be reduced by one unit
Partially contracted basis set               ... on
Rotationally invariant grid construction     ... off

Total number of grid points                  ...    11745
Total number of batches                      ...      185
Average number of points per batch           ...       63
Average number of grid points per atom       ...     2936
UseSFitting                                  ... on

Time for X-Grid setup             =    0.219 sec

--------------
SCF ITERATIONS
--------------
ITER       Energy         Delta-E        Max-DP      RMS-DP      [F,P]     Damp
               ***  Starting incremental Fock matrix formation  ***
  0    -39.8327179259   0.000000000000 0.00155866  0.00003405  0.0016923 0.7000
  1    -39.8327255775  -0.000007651590 0.00137784  0.00002899  0.0011553 0.7000
                               ***Turning on DIIS***
  2    -39.8327307151  -0.000005137650 0.00365799  0.00007434  0.0007463 0.0000
               *** Restarting incremental Fock matrix formation ***
                                   *** Resetting DIIS ***
  3    -39.8327421951  -0.000011479937 0.00128815  0.00002551  0.0003294 0.0000
  4    -39.8327425733  -0.000000378232 0.00010839  0.00000426  0.0001603 0.0000
  5    -39.8327427062  -0.000000132875 0.00011238  0.00000280  0.0000380 0.0000
  6    -39.8327427183  -0.000000012097 0.00001900  0.00000074  0.0000091 0.0000
                 **** Energy Check signals convergence ****

               *****************************************************
               *                     SUCCESS                       *
               *           SCF CONVERGED AFTER   7 CYCLES          *
               *****************************************************

Old exchange energy                            =     -2.171957278 Eh
New exchange energy                            =     -2.171963645 Eh
Exchange energy change after final integration =     -0.000006367 Eh
Total energy after final integration           =    -39.832749086 Eh
Final COS-X integration done in                =     0.135 sec
Total Energy       :          -39.83274909 Eh           -1083.90421 eV
  Last Energy change         ...   -1.2903e-09  Tolerance :   1.0000e-08
  Last MAX-Density change    ...    0.0000e+00  Tolerance :   1.0000e-07
             **** THE GBW FILE WAS UPDATED (/beegfs/scratch/ispackman/PFAS_EPR_calcs/benchmark/JChemEd_CF3_radical/CH3_radical_112.5_degrees_IN-PROGRESS/CH3_radical_112.5_degrees.gbw) ****
             **** DENSITY /beegfs/scratch/ispackman/PFAS_EPR_calcs/benchmark/JChemEd_CF3_radical/CH3_radical_112.5_degrees_IN-PROGRESS/CH3_radical_112.5_degrees.scfp WAS UPDATED ****
             **** ENERGY FILE WAS UPDATED (/beegfs/scratch/ispackman/PFAS_EPR_calcs/benchmark/JChemEd_CF3_radical/CH3_radical_112.5_degrees_IN-PROGRESS/CH3_radical_112.5_degrees.en.tmp) ****
----------------------
UHF SPIN CONTAMINATION
----------------------

Warning: in a DFT calculation there is little theoretical justification to 
         calculate <S**2> as in Hartree-Fock theory. We will do it anyways
         but you should keep in mind that the values have only limited relevance

Expectation value of <S**2>     :     0.753170
Ideal value S*(S+1) for S=0.5   :     0.750000
Deviation                       :     0.003170

             **** THE GBW FILE WAS UPDATED (/beegfs/scratch/ispackman/PFAS_EPR_calcs/benchmark/JChemEd_CF3_radical/CH3_radical_112.5_degrees_IN-PROGRESS/CH3_radical_112.5_degrees.gbw) ****
             **** DENSITY /beegfs/scratch/ispackman/PFAS_EPR_calcs/benchmark/JChemEd_CF3_radical/CH3_radical_112.5_degrees_IN-PROGRESS/CH3_radical_112.5_degrees.scfp WAS UPDATED ****
Total SCF time: 0 days 0 hours 0 min 5 sec 

Maximum memory used throughout the entire SCF-calculation: 58.5 MB


-------------------------------------------------------------------------------
                          DFT DISPERSION CORRECTION                            
                                                                               
                              DFTD3 V3.1  Rev 1                                
                              USING zero damping                               
-------------------------------------------------------------------------------
-------------------------   ----------------
Dispersion correction           -0.000014023
-------------------------   ----------------


-------------------------   --------------------
FINAL SINGLE POINT ENERGY       -39.832763109407
-------------------------   --------------------



           ************************************************************
           *        Program running with 18 parallel MPI-processes    *
           *              working on a common directory               *
           ************************************************************
------------------------------------------------------------------------------
                         ORCA SCF GRADIENT CALCULATION
------------------------------------------------------------------------------

 ... reading COSX grid (gridx3)
Gradient of the Kohn-Sham DFT energy:
Kohn-Sham wavefunction type      ... UKS
Hartree-Fock exchange scaling    ...    0.196
Number of operators              ...    2
Number of atoms                  ...    4
Basis set dimensions             ...   64
Integral neglect threshold       ... 2.5e-11
Integral primitive cutoff        ... 2.5e-12
SHARK Integral package           ... ON

Nuc. rep. gradient       (SHARK) ... done (  0.0 sec)
HCore & Overlap gradient (SHARK) ... done (  0.0 sec)
RI-J gradient            (SHARK) ... done (  0.1 sec)
COSX-gradient                    ... done (  0.1 sec)
Exchange-correlation gradient    ... done
Dispersion correction            ... done

------------------
CARTESIAN GRADIENT
------------------

WARNING: THERE ARE 3 CONSTRAINED CARTESIAN COORDINATES
   1   C   :   -0.000002985    0.000000010    0.030111527
   2   H   :   -0.003015396    0.000000001   -0.010042781
   3   H   :    0.001525793   -0.002614823   -0.010042606
   4   H   :    0.001525779    0.002614824   -0.010042599

Difference to translation invariance:
           :    0.0000331903    0.0000000117   -0.0000164583

Difference to rotation invariance:
           :   -0.0000000111   -0.0000200394   -0.0000000231

Norm of the cartesian gradient     ...    0.0351666388
RMS gradient                       ...    0.0101517342
MAX gradient                       ...    0.0301115268

-------
TIMINGS
-------

Total SCF gradient time            ...        0.595 sec

One electron gradient       ....       0.007 sec  (  1.1%)
RI-J Coulomb gradient       ....       0.130 sec  ( 21.8%)
COSX gradient               ....       0.112 sec  ( 18.8%)
XC gradient                 ....       0.060 sec  ( 10.0%)

Maximum memory used throughout the entire SCFGRAD-calculation: 33.6 MB
------------------------------------------------------------------------------
                         ORCA GEOMETRY RELAXATION STEP
------------------------------------------------------------------------------

Reading the OPT-File                    .... done
Getting information on internals        .... done
Copying old internal coords+grads       .... done
Making the new internal coordinates     .... (new redundants).... done
Validating the new internal coordinates .... (new redundants).... done
Calculating the B-matrix                .... done
Calculating the G,G- and P matrices     .... done
Transforming gradient to internals      .... done
Projecting the internal gradient        .... done
Number of atoms                         ....   4
Number of internal coordinates          ....   7
Current Energy                          ....   -39.832763109 Eh
Current gradient norm                   ....     0.035166639 Eh/bohr
Maximum allowed component of the step   ....  0.300
Current trust radius                    ....  0.300
Updating the Hessian (BFGS)             .... done
Forming the augmented Hessian           .... done
Diagonalizing the augmented Hessian     .... done
Last element of RFO vector              ....  0.999999898
Lowest eigenvalues of augmented Hessian:
 -0.000000075  0.365951832  0.373574723  0.373574754 999.999999990
Length of the computed step             ....  0.000451312
The final length of the internal step   ....  0.000451312
Converting the step to cartesian space:
 Initial RMS(Int)=    0.0001705797
Transforming coordinates:
 Iter   0:  RMS(Cart)=    0.0001264036 RMS(Int)=    0.0001705797
 Iter   1:  RMS(Cart)=    0.0000000000 RMS(Int)=    0.0000000000
Imposing constraints:
 Iter   0:  RMS(Cart)=    0.0000000002 RMS(Int)=    0.0000000008
CONVERGED
done
Storing new coordinates                 .... done

                                .--------------------.
          ----------------------|Geometry convergence|-------------------------
          Item                value                   Tolerance       Converged
          ---------------------------------------------------------------------
          Energy change      -0.0000852713            0.0000050000      NO
          RMS gradient        0.0000624240            0.0001000000      YES
          MAX gradient        0.0000954225            0.0003000000      YES
          RMS step            0.0001705797            0.0020000000      YES
          MAX step            0.0002607516            0.0040000000      YES
          ........................................................
          Max(Bonds)      0.0001      Max(Angles)    0.00
          Max(Dihed)        0.00      Max(Improp)    0.00
          ---------------------------------------------------------------------

       Everything but the energy has converged. However, the energy
       appears to be close enough to convergence to make sure that the
       final evaluation at the new geometry represents the equilibrium energy.
       Convergence will therefore be signaled now


                    ***********************HURRAY********************
                    ***        THE OPTIMIZATION HAS CONVERGED     ***
                    *************************************************


    ---------------------------------------------------------------------------
                         Redundant Internal Coordinates

                          --- Optimized Parameters ---  
                            (Angstroem and degrees)

        Definition                    OldVal   dE/dq     Step     FinalVal
    ----------------------------------------------------------------------------
     1. B(H   1,C   0)                1.0865 -0.000095  0.0001    1.0866   
     2. B(H   2,C   0)                1.0865 -0.000095  0.0001    1.0866   
     3. B(H   3,C   0)                1.0865 -0.000095  0.0001    1.0866   
     4. A(H   2,C   0,H   3)          112.50 -0.011925    0.00    112.50 C 
     5. A(H   1,C   0,H   2)          112.50 -0.004122    0.00    112.50 C 
     6. A(H   1,C   0,H   3)          112.50 -0.004122    0.00    112.50 C 
     7. I(H   1,H   3,H   2,C   0)     46.46  0.017935   -0.00     46.46   
    ----------------------------------------------------------------------------
                 *******************************************************
                 *** FINAL ENERGY EVALUATION AT THE STATIONARY POINT ***
                 ***               (AFTER    2 CYCLES)               ***
                 *******************************************************
---------------------------------
CARTESIAN COORDINATES (ANGSTROEM)
---------------------------------
  C     -0.000004   -0.000000    0.001387
  H      1.043263   -0.000000   -0.302499
  H     -0.521629    0.903483   -0.302497
  H     -0.521629   -0.903483   -0.302497

----------------------------
CARTESIAN COORDINATES (A.U.)
----------------------------
  NO LB      ZA    FRAG     MASS         X           Y           Z
   0 C     6.0000    0    12.011   -0.000007   -0.000000    0.002622
   1 H     1.0000    0     1.008    1.971481   -0.000000   -0.571639
   2 H     1.0000    0     1.008   -0.985737    1.707336   -0.571637
   3 H     1.0000    0     1.008   -0.985737   -1.707336   -0.571637

--------------------------------
INTERNAL COORDINATES (ANGSTROEM)
--------------------------------
 C      0   0   0     0.000000000000     0.00000000     0.00000000
 H      1   0   0     1.086623804549     0.00000000     0.00000000
 H      1   2   0     1.086609968313   112.50000003     0.00000000
 H      1   2   3     1.086609932126   112.50000003   128.30988423

---------------------------
INTERNAL COORDINATES (A.U.)
---------------------------
 C      0   0   0     0.000000000000     0.00000000     0.00000000
 H      1   0   0     2.053421401197     0.00000000     0.00000000
 H      1   2   0     2.053395254500   112.50000003     0.00000000
 H      1   2   3     2.053395186118   112.50000003   128.30988423

---------------------
BASIS SET INFORMATION
---------------------
There are 2 groups of distinct atoms

 Group   1 Type C   : 12s6p3d1f contracted to 6s3p3d1f pattern {621111/411/111/1}
 Group   2 Type H   : 5s2p contracted to 3s2p pattern {311/11}

Atom   0C    basis set group =>   1
Atom   1H    basis set group =>   2
Atom   2H    basis set group =>   2
Atom   3H    basis set group =>   2
---------------------------------
AUXILIARY/J BASIS SET INFORMATION
---------------------------------
There are 2 groups of distinct atoms

 Group   1 Type C   : 12s5p4d2f1g contracted to 6s4p3d1f1g pattern {711111/2111/211/2/1}
 Group   2 Type H   : 5s2p1d contracted to 3s1p1d pattern {311/2/1}

[...]

  NA   - Mulliken gross atomic population
  ZA   - Total nuclear charge
  QA   - Mulliken gross atomic charge
  VA   - Mayer's total valence
  BVA  - Mayer's bonded valence
  FA   - Mayer's free valence

  ATOM       NA         ZA         QA         VA         BVA        FA
  0 C      6.7104     6.0000    -0.7104     3.7639     2.9338     0.8301
  1 H      0.7634     1.0000     0.2366     1.0067     1.0053     0.0014
  2 H      0.7631     1.0000     0.2369     1.0064     1.0050     0.0014
  3 H      0.7631     1.0000     0.2369     1.0064     1.0050     0.0014

  Mayer bond orders larger than 0.100000
B(  0-C ,  1-H ) :   0.9782 B(  0-C ,  2-H ) :   0.9778 B(  0-C ,  3-H ) :   0.9778 


-------
TIMINGS
-------

Total SCF time: 0 days 0 hours 0 min 4 sec 

Total time                  ....       4.025 sec
Sum of individual times     ....       3.447 sec  ( 85.6%)

Fock matrix formation       ....       2.791 sec  ( 69.3%)
  Split-RI-J                ....       0.443 sec  ( 15.9% of F)
  Chain of spheres X        ....       0.775 sec  ( 27.8% of F)
  XC integration            ....       0.553 sec  ( 19.8% of F)
    Basis function eval.    ....       0.026 sec  (  4.7% of XC)
    Density eval.           ....       0.024 sec  (  4.3% of XC)
    XC-Functional eval.     ....       0.025 sec  (  4.6% of XC)
    XC-Potential eval.      ....       0.030 sec  (  5.5% of XC)
Diagonalization             ....       0.080 sec  (  2.0%)
Density matrix formation    ....       0.005 sec  (  0.1%)
Population analysis         ....       0.134 sec  (  3.3%)
Initial guess               ....       0.006 sec  (  0.1%)
Orbital Transformation      ....       0.000 sec  (  0.0%)
Orbital Orthonormalization  ....       0.002 sec  (  0.1%)
DIIS solution               ....       0.105 sec  (  2.6%)
Grid generation             ....       0.327 sec  (  8.1%)

Maximum memory used throughout the entire SCF-calculation: 58.5 MB


-------------------------------------------------------------------------------
                          DFT DISPERSION CORRECTION                            
                                                                               
                              DFTD3 V3.1  Rev 1                                
                              USING zero damping                               
-------------------------------------------------------------------------------
The omegaB97X-D3 functional is recognized. Fit by Chai et al.
Active option DFTDOPT                   ...         3   

molecular C6(AA) [au] = 106.976728 


            DFT-D V3
 parameters
 s6 scaling factor         :     1.0000 
 rs6 scaling factor        :     1.2810 
 s8 scaling factor         :     1.0000 
 rs8 scaling factor        :     1.0940 
 Damping factor alpha6     :    14.0000 
 Damping factor alpha8     :    16.0000 
 ad hoc parameters k1-k3   :    16.0000     1.3333    -4.0000 

 Edisp/kcal,au: -0.008808539650  -0.000014037300 
 E6   /kcal   :  -0.001373538 
 E8   /kcal   :  -0.007435002 
 % E8         :  84.406750104 

-------------------------   ----------------
Dispersion correction           -0.000014037
-------------------------   ----------------


-------------------------   --------------------
FINAL SINGLE POINT ENERGY       -39.832763147934
-------------------------   --------------------

                                *** OPTIMIZATION RUN DONE ***

                            ***************************************
                            *     ORCA property calculations      *
                            ***************************************

                                    ---------------------
                                    Active property flags
                                    ---------------------
   (+) Dipole Moment


------------------------------------------------------------------------------
                       ORCA ELECTRIC PROPERTIES CALCULATION
------------------------------------------------------------------------------

Dipole Moment Calculation                       ... on
Quadrupole Moment Calculation                   ... off
Polarizability Calculation                      ... off
GBWName                                         ... /beegfs/scratch/ispackman/PFAS_EPR_calcs/benchmark/JChemEd_CF3_radical/CH3_radical_112.5_degrees_IN-PROGRESS/CH3_radical_112.5_degrees.gbw
Electron density                                ... /beegfs/scratch/ispackman/PFAS_EPR_calcs/benchmark/JChemEd_CF3_radical/CH3_radical_112.5_degrees_IN-PROGRESS/CH3_radical_112.5_degrees.scfp
The origin for moment calculation is the CENTER OF MASS  = (-0.000005, -0.000000 -0.112880)

-------------
DIPOLE MOMENT
-------------
                                X             Y             Z
Electronic contribution:      0.00019       0.00000       0.46371
Nuclear contribution   :      0.00001       0.00000      -0.68327
                        -----------------------------------------
Total Dipole Moment    :      0.00020       0.00000      -0.21956
                        -----------------------------------------
Magnitude (a.u.)       :      0.21956
Magnitude (Debye)      :      0.55807



--------------------
Rotational spectrum 
--------------------
 
Rotational constants in cm-1:     9.020995     9.020860     5.121917 
Rotational constants in MHz : 270442.627306 270438.578719 153551.219583 

 Dipole components along the rotational axes: 
x,y,z [a.u.] :     0.000202    -0.000000    -0.219558 
x,y,z [Debye]:     0.000513    -0.000001    -0.558073 

 


           ************************************************************
           *        Program running with 18 parallel MPI-processes    *
           *              working on a common directory               *
           ************************************************************

-------------------------------------------------------------------------------
                               ORCA SCF HESSIAN
-------------------------------------------------------------------------------

                   --------- SHARK INITIALIZATION DONE ---------

Hessian of the Kohn-Sham DFT energy:
Kohn-Sham wavefunction type                      ... UKS
Hartree-Fock exchange scaling                    ...    0.196
Number of operators                              ...    2
Number of atoms                                  ...    4
Basis set dimensions                             ...   64
Integral neglect threshold                       ... 2.5e-11
Integral primitive cutoff                        ... 2.5e-12

Setting up DFT Hessian calculations              ... 

HESS GRID
---------

General Integration Accuracy     IntAcc      ... 4.629
Radial Grid Type                 RadialGrid  ... OptM3 with GC (2021)
Angular Grid (max. ang.)         AngularGrid ... 5 (Lebedev-434)
Angular grid pruning method      GridPruning ... 4 (adaptive)
Weight generation scheme         WeightScheme... Becke
Basis function cutoff            BFCut       ... 1.0000e-11
Integration weight cutoff        WCut        ... 1.0000e-14
Angular grids for H and He will be reduced by one unit
Partially contracted basis set               ... off
Rotationally invariant grid construction     ... off

Total number of grid points                  ...    27254
Total number of batches                      ...      429
Average number of points per batch           ...       63
Average number of grid points per atom       ...     6814

Building densities                               ... done   (      0.0 sec)
Calculating rho(r) on the grid                   ... done   (      0.1 sec)
Building xc-kernel on the grid                   ... done   (      0.1 sec)
                                                     done   (      0.4 sec)

Nuclear repulsion Hessian  (SHARK)               ... done   (      0.0 sec)

----------------------------------------------
Forming right-hand sides of CP-SCF equations     ...
----------------------------------------------
One electron integral derivatives  (SHARK)       ... done   (      0.0 sec)
Transforming the overlap derivative matrices     ... done   (      0.0 sec)
Making the Q(x) pseudodensities                  ... done   (      0.0 sec)
Adding the E*S(x)*S(y) terms to the Hessian      ... done   (      0.0 sec)
Calculating energy weighted overlap derivatives  ... done   (      0.0 sec)
Two electron integral derivatives (SHARK-RI)     ... done   (      0.5 sec)
Exchange-correlation integral derivatives        ... done   (      0.4 sec)
tr(F(y)Q(x)) contribution to the Hessian         ... done   (      0.0 sec)
Response fock operator R(S(x)) (SHARK-RIJCOSX)   ... done   (      0.5 sec)
XC Response fock operator R(S(x))                ... done   (      0.1 sec)
tr(F(y)S(x)) contribution to the Hessian         ... done   (      0.0 sec)
Transforming and finalizing RHSs                 ... done   (      0.0 sec)

----------------------------------------------
Solving the CP-SCF equations (RIJCOSX)           ...
----------------------------------------------
     CP-SCF ITERATION   0:   8.7610e-02 (   0.3 sec   0/ 12 done)
     CP-SCF ITERATION   1:   2.4785e-02 (   0.3 sec   0/ 12 done)
     CP-SCF ITERATION   2:   6.5191e-03 (   0.3 sec   0/ 12 done)
     CP-SCF ITERATION   3:   1.9507e-03 (   0.3 sec   0/ 12 done)
     CP-SCF ITERATION   4:   4.0897e-04 (   0.3 sec   1/ 12 done)
     CP-SCF ITERATION   5:   8.7277e-05 (   0.3 sec  12/ 12 done)
                    *** THE CP-SCF HAS CONVERGED ***

                                                 ... done   (      2.0 sec)
Forming perturbed density Hessian contributions  ... done   (      0.0 sec)
2nd integral derivative contribs (SHARK-RI)      ... done   (      0.8 sec)
Exchange-correlation Hessian                     ... done   (      0.3 sec)
Dispersion correction in the Hessian             ... done   (      0.1 sec)
Dipole derivatives                               ... (center of mass: -0.000005, -0.000000 -0.112880)done   (      0.1 sec)

Total SCF Hessian time: 0 days 0 hours 0 min 5 sec 

Writing the Hessian file to the disk             ... done


Maximum memory used throughout the entire SCFHESS-calculation: 109.3 MB

-----------------------
VIBRATIONAL FREQUENCIES
-----------------------

Scaling factor for frequencies =  1.000000000  (already applied!)

   0:         0.00 cm**-1
   1:         0.00 cm**-1
   2:         0.00 cm**-1
   3:         0.00 cm**-1
   4:         0.00 cm**-1
   5:         0.00 cm**-1
   6:      1050.63 cm**-1
   7:      1420.30 cm**-1
   8:      1424.57 cm**-1
   9:      3091.55 cm**-1
  10:      3224.34 cm**-1
  11:      3224.60 cm**-1


------------
NORMAL MODES
------------

These modes are the Cartesian displacements weighted by the diagonal matrix
M(i,i)=1/sqrt(m[i]) where m[i] is the mass of the displaced atom
Thus, these vectors are normalized but *not* orthogonal

                  0          1          2          3          4          5    
      0       0.000000   0.000000   0.000000   0.000000   0.000000   0.000000
      1       0.000000   0.000000   0.000000   0.000000   0.000000   0.000000
      2       0.000000   0.000000   0.000000   0.000000   0.000000   0.000000
      3       0.000000   0.000000   0.000000   0.000000   0.000000   0.000000
      4       0.000000   0.000000   0.000000   0.000000   0.000000   0.000000
      5       0.000000   0.000000   0.000000   0.000000   0.000000   0.000000
      6       0.000000   0.000000   0.000000   0.000000   0.000000   0.000000
      7       0.000000   0.000000   0.000000   0.000000   0.000000   0.000000
      8       0.000000   0.000000   0.000000   0.000000   0.000000   0.000000
      9       0.000000   0.000000   0.000000   0.000000   0.000000   0.000000
     10       0.000000   0.000000   0.000000   0.000000   0.000000   0.000000
     11       0.000000   0.000000   0.000000   0.000000   0.000000   0.000000
                  6          7          8          9         10         11    
      0      -0.000026   0.084023   0.000001   0.000007  -0.095596  -0.000021
      1       0.000000  -0.000001   0.084080  -0.000000   0.000021  -0.095544
      2       0.138249   0.000043  -0.000000   0.032841   0.000007  -0.000000
      3      -0.159661   0.113978   0.000001   0.562344   0.781583   0.000171
      4      -0.000000   0.000007  -0.781752   0.000000   0.000005  -0.022806
      5      -0.549163   0.194249   0.000002  -0.130422  -0.221230  -0.000048
      6       0.079986  -0.557581  -0.387813  -0.281217   0.178831  -0.348358
      7      -0.137914  -0.388231  -0.110064   0.486560  -0.348472   0.580559
      8      -0.549081  -0.097383   0.168489  -0.130450   0.110612  -0.191436
      9       0.079986  -0.557589   0.387802  -0.281217   0.178678   0.348436
     10       0.137914   0.388233  -0.110057  -0.486559   0.348218   0.580713
     11      -0.549081  -0.097380  -0.168490  -0.130450   0.110528   0.191485


-----------
IR SPECTRUM
-----------

 Mode   freq       eps      Int      T**2         TX        TY        TZ
       cm**-1   L/(mol*cm) km/mol    a.u.
----------------------------------------------------------------------------
  6:   1050.63   0.005713   28.87  0.001697  ( 0.000090 -0.000000 -0.041192)
  7:   1420.30   0.000596    3.01  0.000131  (-0.011439  0.000000 -0.000076)
  8:   1424.57   0.000593    3.00  0.000130  (-0.000000 -0.011399  0.000000)
  9:   3091.55   0.000013    0.06  0.000001  (-0.000027  0.000000  0.001137)
 10:   3224.34   0.003099   15.66  0.000300  (-0.017319  0.000004  0.000013)
 11:   3224.60   0.003125   15.79  0.000302  (-0.000004 -0.017389  0.000000)

* The epsilon (eps) is given for a Dirac delta lineshape.
** The dipole moment derivative (T) already includes vibrational overlap.

The first frequency considered to be a vibration is 6
The total number of vibrations considered is 6


--------------------------
THERMOCHEMISTRY AT 298.15K
--------------------------

Temperature         ... 298.15 K
Pressure            ... 1.00 atm
Total Mass          ... 15.03 AMU

Throughout the following assumptions are being made:
  (1) The electronic state is orbitally nondegenerate
      but the spin degeneracy is treated
  (2) There are no thermally accessible electronically excited states
  (3) Hindered rotations indicated by low frequency modes are not
      treated as such but are treated as vibrations and this may
      cause some error
  (4) All equations used are the standard statistical mechanics
      equations for an ideal gas
  (5) All vibrations are strictly harmonic

freq.    1050.63  E(vib)   ...       0.02 
freq.    1420.30  E(vib)   ...       0.00 
freq.    1424.57  E(vib)   ...       0.00 
freq.    3091.55  E(vib)   ...       0.00 
freq.    3224.34  E(vib)   ...       0.00 
freq.    3224.60  E(vib)   ...       0.00 

------------
INNER ENERGY
------------

The inner energy is: U= E(el) + E(ZPE) + E(vib) + E(rot) + E(trans)
    E(el)   - is the total energy from the electronic structure calculation
              = E(kin-el) + E(nuc-el) + E(el-el) + E(nuc-nuc)
    E(ZPE)  - the the zero temperature vibrational energy from the frequency calculation
    E(vib)  - the the finite temperature correction to E(ZPE) due to population
              of excited vibrational states
    E(rot)  - is the rotational thermal energy
    E(trans)- is the translational thermal energy

Summary of contributions to the inner energy U:
Electronic energy                ...    -39.83276315 Eh
Zero point energy                ...      0.03060943 Eh      19.21 kcal/mol
Thermal vibrational correction   ...      0.00004383 Eh       0.03 kcal/mol
Thermal rotational correction    ...      0.00141627 Eh       0.89 kcal/mol
Thermal translational correction ...      0.00141627 Eh       0.89 kcal/mol
-----------------------------------------------------------------------
Total thermal energy                    -39.79927734 Eh


Summary of corrections to the electronic energy:
(perhaps to be used in another calculation)
Total thermal correction                  0.00287638 Eh       1.80 kcal/mol
Non-thermal (ZPE) correction              0.03060943 Eh      19.21 kcal/mol
-----------------------------------------------------------------------
Total correction                          0.03348581 Eh      21.01 kcal/mol


--------
ENTHALPY
--------

The enthalpy is H = U + kB*T
                kB is Boltzmann's constant
Total free energy                 ...    -39.79927734 Eh 
Thermal Enthalpy correction       ...      0.00094421 Eh       0.59 kcal/mol
-----------------------------------------------------------------------
Total Enthalpy                    ...    -39.79833313 Eh


Note: Rotational entropy computed according to Herzberg 
Infrared and Raman Spectra, Chapter V,1, Van Nostrand Reinhold, 1945 
Point Group:  C3v, Symmetry Number:   3  
Rotational constants in cm-1:     9.020995     9.020860     5.121917 

Vibrational entropy computed according to the QRRHO of S. Grimme
Chem.Eur.J. 2012 18 9955


-------
ENTROPY
-------

The entropy contributions are T*S = T*(S(el)+S(vib)+S(rot)+S(trans))
     S(el)   - electronic entropy
     S(vib)  - vibrational entropy
     S(rot)  - rotational entropy
     S(trans)- translational entropy
The entropies will be listed as multiplied by the temperature to get
units of energy

Electronic entropy                ...      0.00065446 Eh      0.41 kcal/mol
Vibrational entropy               ...      0.00005178 Eh      0.03 kcal/mol
Rotational entropy                ...      0.00562558 Eh      3.53 kcal/mol
Translational entropy             ...      0.01618771 Eh     10.16 kcal/mol
-----------------------------------------------------------------------
Final entropy term                ...      0.02251952 Eh     14.13 kcal/mol

In case the symmetry of your molecule has not been determined correctly
or in case you have a reason to use a different symmetry number we print 
out the resulting rotational entropy values for sn=1,12 :
 --------------------------------------------------------
|  sn= 1 | S(rot)=       0.00666287 Eh      4.18 kcal/mol|
|  sn= 2 | S(rot)=       0.00600841 Eh      3.77 kcal/mol|
|  sn= 3 | S(rot)=       0.00562558 Eh      3.53 kcal/mol|
|  sn= 4 | S(rot)=       0.00535395 Eh      3.36 kcal/mol|
|  sn= 5 | S(rot)=       0.00514327 Eh      3.23 kcal/mol|
|  sn= 6 | S(rot)=       0.00497112 Eh      3.12 kcal/mol|
|  sn= 7 | S(rot)=       0.00482557 Eh      3.03 kcal/mol|
|  sn= 8 | S(rot)=       0.00469950 Eh      2.95 kcal/mol|
|  sn= 9 | S(rot)=       0.00458829 Eh      2.88 kcal/mol|
|  sn=10 | S(rot)=       0.00448881 Eh      2.82 kcal/mol|
|  sn=11 | S(rot)=       0.00439882 Eh      2.76 kcal/mol|
|  sn=12 | S(rot)=       0.00431666 Eh      2.71 kcal/mol|
 --------------------------------------------------------


-------------------
GIBBS FREE ENERGY
-------------------

The Gibbs free energy is G = H - T*S

Total enthalpy                    ...    -39.79833313 Eh 
Total entropy correction          ...     -0.02251952 Eh    -14.13 kcal/mol
-----------------------------------------------------------------------
Final Gibbs free energy         ...    -39.82085265 Eh

For completeness - the Gibbs free energy minus the electronic energy
G-E(el)                           ...      0.01191050 Eh      7.47 kcal/mol


Timings for individual modules:

Sum of individual times         ...       46.332 sec (=   0.772 min)
GTO integral calculation        ...        8.122 sec (=   0.135 min)  17.5 %
SCF iterations                  ...       23.871 sec (=   0.398 min)  51.5 %
SCF Gradient evaluation         ...        5.935 sec (=   0.099 min)  12.8 %
Geometry relaxation             ...        0.132 sec (=   0.002 min)   0.3 %
Analytical frequency calculation...        8.272 sec (=   0.138 min)  17.9 %
                             ****ORCA TERMINATED NORMALLY****
TOTAL RUN TIME: 0 days 0 hours 0 minutes 53 seconds 412 msec

slurmID:    32260116
totalRuntime[s]:    53.450420161
