
                                 *****************
                                 * O   R   C   A *
                                 *****************

                                            #,                                       
                                            ###                                      
                                            ####                                     
                                            #####                                    
                                            ######                                   
                                           ########,                                 
                                     ,,################,,,,,                         
                               ,,#################################,,                 
                          ,,##########################################,,             
                       ,#########################################, ''#####,          
                    ,#############################################,,   '####,        
                  ,##################################################,,,,####,       
                ,###########''''           ''''###############################       
              ,#####''   ,,,,##########,,,,          '''####'''          '####       
            ,##' ,,,,###########################,,,                        '##       
           ' ,,###''''                  '''############,,,                           
         ,,##''                                '''############,,,,        ,,,,,,###''
      ,#''                                            '''#######################'''  
     '                                                          ''''####''''         
             ,#######,   #######,   ,#######,      ##                                
            ,#'     '#,  ##    ##  ,#'     '#,    #''#        ######   ,####,        
            ##       ##  ##   ,#'  ##            #'  '#       #        #'  '#        
            ##       ##  #######   ##           ,######,      #####,   #    #        
            '#,     ,#'  ##    ##  '#,     ,#' ,#      #,         ##   #,  ,#        
             '#######'   ##     ##  '#######'  #'      '#     #####' # '####'        



                  #######################################################
                  #                        -***-                        #
                  #          Department of theory and spectroscopy      #
                  #    Directorship and core code : Frank Neese         #
                  #        Max Planck Institute fuer Kohlenforschung    #
                  #                Kaiser Wilhelm Platz 1               #
                  #                 D-45470 Muelheim/Ruhr               #
                  #                      Germany                        #
                  #                                                     #
                  #                  All rights reserved                #
                  #                        -***-                        #
                  #######################################################


                         Program Version 5.0.4 -  RELEASE  -


 With contributions from (in alphabetic order):
   Daniel Aravena         : Magnetic Suceptibility
   Michael Atanasov       : Ab Initio Ligand Field Theory (pilot matlab implementation)
   Alexander A. Auer      : GIAO ZORA, VPT2 properties, NMR spectrum
   Ute Becker             : Parallelization
   Giovanni Bistoni       : ED, misc. LED, open-shell LED, HFLD
   Martin Brehm           : Molecular dynamics
   Dmytro Bykov           : SCF Hessian
   Vijay G. Chilkuri      : MRCI spin determinant printing, contributions to CSF-ICE
   Dipayan Datta          : RHF DLPNO-CCSD density
   Achintya Kumar Dutta   : EOM-CC, STEOM-CC
   Dmitry Ganyushin       : Spin-Orbit,Spin-Spin,Magnetic field MRCI
   Miquel Garcia          : C-PCM and meta-GGA Hessian, CC/C-PCM, Gaussian charge scheme
   Yang Guo               : DLPNO-NEVPT2, F12-NEVPT2, CIM, IAO-localization
   Andreas Hansen         : Spin unrestricted coupled pair/coupled cluster methods
   Benjamin Helmich-Paris : MC-RPA, TRAH-SCF, COSX integrals
   Lee Huntington         : MR-EOM, pCC
   Robert Izsak           : Overlap fitted RIJCOSX, COSX-SCS-MP3, EOM
   Marcus Kettner         : VPT2
   Christian Kollmar      : KDIIS, OOCD, Brueckner-CCSD(T), CCSD density, CASPT2, CASPT2-K
   Simone Kossmann        : Meta GGA functionals, TD-DFT gradient, OOMP2, MP2 Hessian
   Martin Krupicka        : Initial AUTO-CI
   Lucas Lang             : DCDCAS
   Marvin Lechner         : AUTO-CI (C++ implementation), FIC-MRCC
   Dagmar Lenk            : GEPOL surface, SMD
   Dimitrios Liakos       : Extrapolation schemes; Compound Job, initial MDCI parallelization
   Dimitrios Manganas     : Further ROCIS development; embedding schemes
   Dimitrios Pantazis     : SARC Basis sets
   Anastasios Papadopoulos: AUTO-CI, single reference methods and gradients
   Taras Petrenko         : DFT Hessian,TD-DFT gradient, ASA, ECA, R-Raman, ABS, FL, XAS/XES, NRVS
   Peter Pinski           : DLPNO-MP2, DLPNO-MP2 Gradient
   Christoph Reimann      : Effective Core Potentials
   Marius Retegan         : Local ZFS, SOC
   Christoph Riplinger    : Optimizer, TS searches, QM/MM, DLPNO-CCSD(T), (RO)-DLPNO pert. Triples
   Tobias Risthaus        : Range-separated hybrids, TD-DFT gradient, RPA, STAB
   Michael Roemelt        : Original ROCIS implementation
   Masaaki Saitow         : Open-shell DLPNO-CCSD energy and density
   Barbara Sandhoefer     : DKH picture change effects
   Avijit Sen             : IP-ROCIS
   Kantharuban Sivalingam : CASSCF convergence, NEVPT2, FIC-MRCI
   Bernardo de Souza      : ESD, SOC TD-DFT
   Georgi Stoychev        : AutoAux, RI-MP2 NMR, DLPNO-MP2 response
   Willem Van den Heuvel  : Paramagnetic NMR
   Boris Wezisla          : Elementary symmetry handling
   Frank Wennmohs         : Technical directorship


 We gratefully acknowledge several colleagues who have allowed us to
 interface, adapt or use parts of their codes:
   Stefan Grimme, W. Hujo, H. Kruse, P. Pracht,  : VdW corrections, initial TS optimization,
                  C. Bannwarth, S. Ehlert          DFT functionals, gCP, sTDA/sTD-DF
   Ed Valeev, F. Pavosevic, A. Kumar             : LibInt (2-el integral package), F12 methods
   Garnet Chan, S. Sharma, J. Yang, R. Olivares  : DMRG
   Ulf Ekstrom                                   : XCFun DFT Library
   Mihaly Kallay                                 : mrcc  (arbitrary order and MRCC methods)
   Jiri Pittner, Ondrej Demel                    : Mk-CCSD
   Frank Weinhold                                : gennbo (NPA and NBO analysis)
   Christopher J. Cramer and Donald G. Truhlar   : smd solvation model
   Lars Goerigk                                  : TD-DFT with DH, B97 family of functionals
   V. Asgeirsson, H. Jonsson                     : NEB implementation
   FAccTs GmbH                                   : IRC, NEB, NEB-TS, DLPNO-Multilevel, CI-OPT
                                                   MM, QMMM, 2- and 3-layer-ONIOM, Crystal-QMMM,
                                                   LR-CPCM, SF, NACMEs, symmetry and pop. for TD-DFT,
                                                   nearIR, NL-DFT gradient (VV10), updates on ESD,
                                                   ML-optimized integration grids
   S Lehtola, MJT Oliveira, MAL Marques          : LibXC Library
   Liviu Ungur et al                             : ANISO software


 Your calculation uses the libint2 library for the computation of 2-el integrals
 For citations please refer to: http://libint.valeyev.net

 Your ORCA version has been built with support for libXC version: 5.1.0
 For citations please refer to: https://tddft.org/programs/libxc/

 This ORCA versions uses:
   CBLAS   interface :  Fast vector & matrix operations
   LAPACKE interface :  Fast linear algebra routines
   SCALAPACK package :  Parallel linear algebra routines
   Shared memory     :  Shared parallel matrices
   BLAS/LAPACK       :  OpenBLAS 0.3.15  USE64BITINT DYNAMIC_ARCH NO_AFFINITY SkylakeX SINGLE_THREADED
        Core in use  :  SkylakeX
   Copyright (c) 2011-2014, The OpenBLAS Project


Your calculation utilizes the atom-pairwise dispersion correction
with the zero-damping scheme (D30)
Cite in your paper:
S.Grimme, J.Antony, S.Ehrlich and H.Krieg, J.Chem.Phys., 132, (2010), 154104 
   

XCFun DFT library Copyright 2009-2010 Ulf Ekstrom and contributors.
See http://admol.org/xcfun for more information.
This is free software; see the source code for copying conditions.
There is ABSOLUTELY NO WARRANTY; not even for MERCHANTABILITY or FITNESS FOR A PARTICULAR PURPOSE.
For details see the documentation.
Scientific users of this library should cite U. Ekstrom, L. Visscher, R. Bast, A. J. Thorvaldsen and K. Ruud;
J.Chem.Theor.Comp. 2010, DOI: 10.1021/ct100117s
XCFun Version 0.99 

================================================================================

----- Orbital basis set information -----
Your calculation utilizes the basis: def2-TZVPD
   F. Weigend and R. Ahlrichs, Phys. Chem. Chem. Phys. 7, 3297 (2005).
   D. Rappoport and F. Furche, J. Chem. Phys. 133 134105 (2010).

----- AuxJ basis set information -----
Your calculation utilizes the auxiliary basis: def2/J
   F. Weigend, Phys. Chem. Chem. Phys. 8, 1057 (2006).

================================================================================
                                        WARNINGS
                       Please study these warnings very carefully!
================================================================================


WARNING: Geometry Optimization
  ===> : Switching off AutoStart
         For restart on a previous wavefunction, please use MOREAD

INFO   : the flag for use of the SHARK integral package has been found!

================================================================================
                                       INPUT FILE
================================================================================
NAME = /beegfs/scratch/ispackman/PFAS_EPR_calcs/benchmark/JChemEd_CF3_radical/CH3_radical_117.5_degrees_IN-PROGRESS/CH3_radical_117.5_degrees.inp
|  1> ! UKS TightSCF wB97x-D3 def2-TZVPD xyzfile opt freq
|  2> 
|  3> # CH3 radical 117.5 degrees fixed
|  4> 
|  5> %maxcore 1000
|  6> %pal
|  7> nprocs 18
|  8> end
|  9> 
| 10> %geom Constraints
| 11>         { A * 0 * C }
| 12>     end
| 13> end
| 14> * xyz 0 2
| 15> C 0.00 0.00 0.00
| 16> H 1.0661405731 0.0000000000 -0.1724652961
| 17> H -0.5330702866 0.9233048203 -0.1724652961
| 18> H -0.5330702866 -0.9233048203 -0.1724652961
| 19> **                         ****END OF INPUT****
================================================================================

                       *****************************
                       * Geometry Optimization Run *
                       *****************************

Geometry optimization settings:
Update method            Update   .... BFGS
Choice of coordinates    CoordSys .... Z-matrix Internals
Initial Hessian          InHess   .... Almoef's Model

Convergence Tolerances:
Energy Change            TolE     ....  5.0000e-06 Eh
Max. Gradient            TolMAXG  ....  3.0000e-04 Eh/bohr
RMS Gradient             TolRMSG  ....  1.0000e-04 Eh/bohr
Max. Displacement        TolMAXD  ....  4.0000e-03 bohr
RMS Displacement         TolRMSD  ....  2.0000e-03 bohr
Strict Convergence                ....  False
------------------------------------------------------------------------------
                        ORCA OPTIMIZATION COORDINATE SETUP
------------------------------------------------------------------------------

The optimization will be done in new redundant internal coordinates
Making redundant internal coordinates   ...  (new redundants) done
Evaluating the initial hessian          ...  (Almloef) done
Evaluating the coordinates              ...  done
Calculating the B-matrix                .... done
Calculating the G-matrix                .... done
Diagonalizing the G-matrix              .... done
Imposing constraints:
 Iter   0:  RMS(Cart)=    0.0000000000 RMS(Int)=    0.0000000000
CONVERGED
Will constrain atom 0 coordinate 1 
Will constrain atom 0 coordinate 2 
Will constrain atom 1 coordinate 2 
The first mode is                       ....    1
The number of degrees of freedom        ....    6
Storing new coordinates                 .... done

    -----------------------------------------------------------------
                    Redundant Internal Coordinates


    -----------------------------------------------------------------
         Definition                    Initial Value    Approx d2E/dq
    -----------------------------------------------------------------
      1. B(H   1,C   0)                  1.0800         0.373575   
      2. B(H   2,C   0)                  1.0800         0.373575   
      3. B(H   3,C   0)                  1.0800         0.373575   
      4. A(H   2,C   0,H   3)          117.5000         0.294224 C 
      5. A(H   1,C   0,H   2)          117.5000         0.294224 C 
      6. A(H   1,C   0,H   3)          117.5000         0.294224 C 
      7. I(H   1,H   3,H   2,C   0)     27.1170         0.015376   
    -----------------------------------------------------------------

Number of atoms                         .... 4
Number of degrees of freedom            .... 7

         *************************************************************
         *                GEOMETRY OPTIMIZATION CYCLE   1            *
         *************************************************************
---------------------------------
CARTESIAN COORDINATES (ANGSTROEM)
---------------------------------
  C      0.000000    0.000000    0.000000
  H      1.066141    0.000000   -0.172465
  H     -0.533070    0.923305   -0.172465
  H     -0.533070   -0.923305   -0.172465

----------------------------
CARTESIAN COORDINATES (A.U.)
----------------------------
  NO LB      ZA    FRAG     MASS         X           Y           Z
   0 C     6.0000    0    12.011    0.000000    0.000000    0.000000
   1 H     1.0000    0     1.008    2.014714    0.000000   -0.325912
   2 H     1.0000    0     1.008   -1.007357    1.744793   -0.325912
   3 H     1.0000    0     1.008   -1.007357   -1.744793   -0.325912

--------------------------------
INTERNAL COORDINATES (ANGSTROEM)
--------------------------------
 C      0   0   0     0.000000000000     0.00000000     0.00000000
 H      1   0   0     1.079999999986     0.00000000     0.00000000
 H      1   2   0     1.080000000002   117.50000000     0.00000000
 H      1   2   3     1.080000000002   117.50000000   149.07803258

---------------------------
INTERNAL COORDINATES (A.U.)
---------------------------
 C      0   0   0     0.000000000000     0.00000000     0.00000000
 H      1   0   0     2.040904224608     0.00000000     0.00000000
 H      1   2   0     2.040904224638   117.50000000     0.00000000
 H      1   2   3     2.040904224638   117.50000000   149.07803258

---------------------
BASIS SET INFORMATION
---------------------
There are 2 groups of distinct atoms

 Group   1 Type C   : 12s6p3d1f contracted to 6s3p3d1f pattern {621111/411/111/1}
 Group   2 Type H   : 5s2p contracted to 3s2p pattern {311/11}

Atom   0C    basis set group =>   1
Atom   1H    basis set group =>   2
Atom   2H    basis set group =>   2
Atom   3H    basis set group =>   2
---------------------------------
AUXILIARY/J BASIS SET INFORMATION
---------------------------------
There are 2 groups of distinct atoms

 Group   1 Type C   : 12s5p4d2f1g contracted to 6s4p3d1f1g pattern {711111/2111/211/2/1}
 Group   2 Type H   : 5s2p1d contracted to 3s1p1d pattern {311/2/1}

Atom   0C    basis set group =>   1
Atom   1H    basis set group =>   2
Atom   2H    basis set group =>   2
Atom   3H    basis set group =>   2


           ************************************************************
           *        Program running with 18 parallel MPI-processes    *
           *              working on a common directory               *
           ************************************************************
------------------------------------------------------------------------------
                           ORCA GTO INTEGRAL CALCULATION
                           -- RI-GTO INTEGRALS CHOSEN --
------------------------------------------------------------------------------
------------------------------------------------------------------------------
                   ___                                                        
                  /   \      - P O W E R E D   B Y -                         
                 /     \                                                     
                 |  |  |   _    _      __       _____    __    __             
                 |  |  |  | |  | |    /  \     |  _  \  |  |  /  |          
                  \  \/   | |  | |   /    \    | | | |  |  | /  /          
                 / \  \   | |__| |  /  /\  \   | |_| |  |  |/  /          
                |  |  |   |  __  | /  /__\  \  |    /   |      \           
                |  |  |   | |  | | |   __   |  |    \   |  |\   \          
                \     /   | |  | | |  |  |  |  | |\  \  |  | \   \       
                 \___/    |_|  |_| |__|  |__|  |_| \__\ |__|  \__/        
                                                                              
                      - O R C A' S   B I G   F R I E N D -                    
                                      &                                       
                       - I N T E G R A L  F E E D E R -                       
                                                                              
 v1 FN, 2020, v2 2021                                                         
------------------------------------------------------------------------------


Reading SHARK input file /beegfs/scratch/ispackman/PFAS_EPR_calcs/benchmark/JChemEd_CF3_radical/CH3_radical_117.5_degrees_IN-PROGRESS/CH3_radical_117.5_degrees.SHARKINP.tmp ... ok
----------------------
SHARK INTEGRAL PACKAGE
----------------------

Number of atoms                             ...      4
Number of basis functions                   ...     64
Number of shells                            ...     28
Maximum angular momentum                    ...      3
Integral batch strategy                     ... SHARK/LIBINT Hybrid
RI-J (if used) integral strategy            ... SPLIT-RIJ (Revised 2003 algorithm where possible)
Printlevel                                  ...      1
Contraction scheme used                     ... SEGMENTED contraction
Coulomb Range Separation                    ... NOT USED
Exchange Range Separation                   ... Long Range
   Mu parameter                             ...  0.250000
   Scaling (regular/separated)              ...  0.195728  0.804272
Finite Nucleus Model                        ... NOT USED
Auxiliary Coulomb fitting basis             ... AVAILABLE
   # of basis functions in Aux-J            ...     82
   # of shells in Aux-J                     ...     30
   Maximum angular momentum in Aux-J        ...      4
Auxiliary J/K fitting basis                 ... NOT available
Auxiliary Correlation fitting basis         ... NOT available
Auxiliary 'external' fitting basis          ... NOT available
Integral threshold                          ...     2.500000e-11
Primitive cut-off                           ...     2.500000e-12
Primitive pair pre-selection threshold      ...     2.500000e-12

Calculating pre-screening integrals         ... done (  0.0 sec) Dimension = 28
Organizing shell pair data                  ... done (  0.0 sec)
Shell pair information
Total number of shell pairs                 ...       406
Shell pairs after pre-screening             ...       406
Total number of primitive shell pairs       ...       977
Primitive shell pairs kept                  ...       944
          la=0 lb=0:    120 shell pairs
          la=1 lb=0:    135 shell pairs
          la=1 lb=1:     45 shell pairs
          la=2 lb=0:     45 shell pairs
          la=2 lb=1:     27 shell pairs
          la=2 lb=2:      6 shell pairs
          la=3 lb=0:     15 shell pairs
          la=3 lb=1:      9 shell pairs
          la=3 lb=2:      3 shell pairs
          la=3 lb=3:      1 shell pairs

Calculating one electron integrals          ... done (  0.0 sec)
Calculating RI/J V-Matrix + Cholesky decomp.... done (  0.1 sec)
Calculating Nuclear repulsion               ... done (  0.0 sec) ENN=      9.679320851477 Eh

SHARK setup successfully completed in   0.3 seconds

Maximum memory used throughout the entire GTOINT-calculation: 14.0 MB


           ************************************************************
           *        Program running with 18 parallel MPI-processes    *
           *              working on a common directory               *
           ************************************************************
-------------------------------------------------------------------------------
                                 ORCA SCF
-------------------------------------------------------------------------------

------------
SCF SETTINGS
------------
Hamiltonian:
 Density Functional     Method          .... DFT(GTOs)
 Exchange Functional    Exchange        .... WB97X-D3
 Correlation Functional Correlation     .... WB97X-D3
 Gradients option       PostSCFGGA      .... off
 Hybrid DFT is turned on
   Fraction HF Exchange ScalHFX         ....  0.195728
   Scaling of DF-GGA-X  ScalDFX         ....  0.000000
   Scaling of DF-GGA-C  ScalDFC         ....  1.000000
   Scaling of DF-LDA-C  ScalLDAC        ....  1.000000
   Perturbative correction              ....  0.000000
   Density functional embedding theory  .... OFF
 Long-range corrected/Screened/Range-Separated Hybrid DFT is turned on
   Amount of maximum screened exact exchange              ....  0.804272
   Range separation parameter mu (erf(mu*r12)/r12)        ....  0.250000
 RI-approximation to the Coulomb term is turned on
   Number of AuxJ basis functions       .... 82
   RIJ-COSX (HFX calculated with COS-X)).... on


General Settings:
 Integral files         IntName         .... /beegfs/scratch/ispackman/PFAS_EPR_calcs/benchmark/JChemEd_CF3_radical/CH3_radical_117.5_degrees_IN-PROGRESS/CH3_radical_117.5_degrees
 Hartree-Fock type      HFTyp           .... UHF
 Total Charge           Charge          ....    0
 Multiplicity           Mult            ....    2
 Number of Electrons    NEL             ....    9
 Basis Dimension        Dim             ....   64
 Nuclear Repulsion      ENuc            ....      9.6793208515 Eh

Convergence Acceleration:
 DIIS                   CNVDIIS         .... on
   Start iteration      DIISMaxIt       ....    12
   Startup error        DIISStart       ....  0.200000
   # of expansion vecs  DIISMaxEq       ....     5
   Bias factor          DIISBfac        ....   1.050
   Max. coefficient     DIISMaxC        ....  10.000
 Trust-Rad. Augm. Hess. CNVTRAH         .... auto
   Auto Start mean grad. ratio tolernc. ....  1.125000
   Auto Start start iteration           ....    20
   Auto Start num. interpolation iter.  ....    10
   Max. Number of Micro iterations      ....    16
   Max. Number of Macro iterations      .... Maxiter - #DIIS iter
   Number of Davidson start vectors     ....     2
   Converg. threshold I  (grad. norm)   ....   1.000e-05
   Converg. threshold II (energy diff.) ....   1.000e-08
   Grad. Scal. Fac. for Micro threshold ....   0.100
   Minimum threshold for Micro iter.    ....   0.010
   NR start threshold (gradient norm)   ....   0.001
   Initial trust radius                 ....   0.400
   Minimum AH scaling param. (alpha)    ....   1.000
   Maximum AH scaling param. (alpha)    .... 1000.000
   Orbital update algorithm             .... Taylor
   White noise on init. David. guess    .... on
   Maximum white noise                  ....   0.010
   Quad. conv. algorithm                .... NR
 SOSCF                  CNVSOSCF        .... off
 Level Shifting         CNVShift        .... on
   Level shift para.    LevelShift      ....    0.2500
   Turn off err/grad.   ShiftErr        ....    0.0010
 Zerner damping         CNVZerner       .... off
 Static damping         CNVDamp         .... on
   Fraction old density DampFac         ....    0.7000
   Max. Damping (<1)    DampMax         ....    0.9800
   Min. Damping (>=0)   DampMin         ....    0.0000
   Turn off err/grad.   DampErr         ....    0.1000
 Fernandez-Rico         CNVRico         .... off

SCF Procedure:
 Maximum # iterations   MaxIter         ....   125
 SCF integral mode      SCFMode         .... Direct
   Integral package                     .... SHARK and LIBINT hybrid scheme
 Reset frequency        DirectResetFreq ....    20
 Integral Threshold     Thresh          ....  2.500e-11 Eh
 Primitive CutOff       TCut            ....  2.500e-12 Eh

Convergence Tolerance:
 Convergence Check Mode ConvCheckMode   .... Total+1el-Energy
 Convergence forced     ConvForced      .... 0
 Energy Change          TolE            ....  1.000e-08 Eh
 1-El. energy change                    ....  1.000e-05 Eh
 DIIS Error             TolErr          ....  5.000e-07


Diagonalization of the overlap matrix:
Smallest eigenvalue                        ... 6.398e-05
Time for diagonalization                   ...    0.002 sec
Threshold for overlap eigenvalues          ... 1.000e-08
Number of eigenvalues below threshold      ... 0
Time for construction of square roots      ...    0.014 sec
Total time needed                          ...    0.016 sec

Time for model grid setup =    0.044 sec

------------------------------
INITIAL GUESS: MODEL POTENTIAL
------------------------------
Loading Hartree-Fock densities                     ... done
Calculating cut-offs                               ... done
Initializing the effective Hamiltonian             ... done
Setting up the integral package (SHARK)            ... done
Starting the Coulomb interaction                   ... done (   0.1 sec)
Reading the grid                                   ... done
Mapping shells                                     ... done
Starting the XC term evaluation                    ... done (   0.0 sec)
  promolecular density results
     # of electrons  =      8.998329445
     EX              =     -5.932610475
     EC              =     -0.258961658
     EX+EC           =     -6.191572132
Transforming the Hamiltonian                       ... done (   0.0 sec)
Diagonalizing the Hamiltonian                      ... done (   0.0 sec)
Back transforming the eigenvectors                 ... done (   0.0 sec)
Now organizing SCF variables                       ... done
                      ------------------
                      INITIAL GUESS DONE (   0.2 sec)
                      ------------------
-------------------
DFT GRID GENERATION
-------------------

General Integration Accuracy     IntAcc      ... 4.388
Radial Grid Type                 RadialGrid  ... OptM3 with GC (2021)
Angular Grid (max. ang.)         AngularGrid ... 4 (Lebedev-302)
Angular grid pruning method      GridPruning ... 4 (adaptive)
Weight generation scheme         WeightScheme... Becke
Basis function cutoff            BFCut       ... 1.0000e-11
Integration weight cutoff        WCut        ... 1.0000e-14
Angular grids for H and He will be reduced by one unit
Partially contracted basis set               ... off
Rotationally invariant grid construction     ... off

Total number of grid points                  ...    17036
Total number of batches                      ...      268
Average number of points per batch           ...       63
Average number of grid points per atom       ...     4259
Time for grid setup =    0.090 sec

--------------------
COSX GRID GENERATION
--------------------

GRIDX 1
-------
General Integration Accuracy     IntAcc      ... 3.816
Radial Grid Type                 RadialGrid  ... OptM3 with GC (2021)
Angular Grid (max. ang.)         AngularGrid ... 1 (Lebedev-50)
Angular grid pruning method      GridPruning ... 4 (adaptive)
Weight generation scheme         WeightScheme... Becke
Basis function cutoff            BFCut       ... 1.0000e-11
Integration weight cutoff        WCut        ... 1.0000e-14
Angular grids for H and He will be reduced by one unit
Partially contracted basis set               ... on
Rotationally invariant grid construction     ... off

Total number of grid points                  ...     2149
Total number of batches                      ...       35
Average number of points per batch           ...       61
Average number of grid points per atom       ...      537
UseSFitting                                  ... on

GRIDX 2
-------
General Integration Accuracy     IntAcc      ... 4.020
Radial Grid Type                 RadialGrid  ... OptM3 with GC (2021)
Angular Grid (max. ang.)         AngularGrid ... 2 (Lebedev-110)
Angular grid pruning method      GridPruning ... 4 (adaptive)
Weight generation scheme         WeightScheme... Becke
Basis function cutoff            BFCut       ... 1.0000e-11
Integration weight cutoff        WCut        ... 1.0000e-14
Angular grids for H and He will be reduced by one unit
Partially contracted basis set               ... on
Rotationally invariant grid construction     ... off

Total number of grid points                  ...     5066
Total number of batches                      ...       81
Average number of points per batch           ...       62
Average number of grid points per atom       ...     1266
UseSFitting                                  ... on

GRIDX 3
-------
General Integration Accuracy     IntAcc      ... 4.338
Radial Grid Type                 RadialGrid  ... OptM3 with GC (2021)
Angular Grid (max. ang.)         AngularGrid ... 3 (Lebedev-194)
Angular grid pruning method      GridPruning ... 4 (adaptive)
Weight generation scheme         WeightScheme... Becke
Basis function cutoff            BFCut       ... 1.0000e-11
Integration weight cutoff        WCut        ... 1.0000e-14
Angular grids for H and He will be reduced by one unit
Partially contracted basis set               ... on
Rotationally invariant grid construction     ... off

Total number of grid points                  ...    11729
Total number of batches                      ...      186
Average number of points per batch           ...       63
Average number of grid points per atom       ...     2932
UseSFitting                                  ... on

Time for X-Grid setup             =    0.264 sec

--------------
SCF ITERATIONS
--------------
ITER       Energy         Delta-E        Max-DP      RMS-DP      [F,P]     Damp
               ***  Starting incremental Fock matrix formation  ***
  0    -39.8013082833   0.000000000000 0.01594931  0.00061741  0.0793927 0.7000
  1    -39.8152663424  -0.013958059104 0.01170636  0.00052229  0.0505712 0.7000
                               ***Turning on DIIS***
  2    -39.8230454049  -0.007779062485 0.02810834  0.00121980  0.0288510 0.0000
  3    -39.8361935032  -0.013148098284 0.00909599  0.00038899  0.0200157 0.0000
  4    -39.8378405154  -0.001647012245 0.00350225  0.00010545  0.0036665 0.0000
  5    -39.8379087410  -0.000068225587 0.00251850  0.00007034  0.0015873 0.0000
  6    -39.8379278626  -0.000019121655 0.00195148  0.00005567  0.0006696 0.0000
               *** Restarting incremental Fock matrix formation ***
                                   *** Resetting DIIS ***
  7    -39.8379281931  -0.000000330479 0.00048858  0.00001219  0.0000900 0.0000
  8    -39.8379283161  -0.000000122937 0.00018785  0.00000517  0.0000514 0.0000
  9    -39.8379283465  -0.000000030410 0.00002190  0.00000109  0.0000217 0.0000
 10    -39.8379283498  -0.000000003363 0.00000956  0.00000032  0.0000055 0.0000
                 **** Energy Check signals convergence ****

               *****************************************************
               *                     SUCCESS                       *
               *           SCF CONVERGED AFTER  11 CYCLES          *
               *****************************************************

Old exchange energy                            =     -2.173047196 Eh
New exchange energy                            =     -2.173052054 Eh
Exchange energy change after final integration =     -0.000004858 Eh
Total energy after final integration           =    -39.837933208 Eh
Final COS-X integration done in                =     0.124 sec

----------------
TOTAL SCF ENERGY
----------------

Total Energy       :          -39.83793321 Eh           -1084.04527 eV

Components:
Nuclear Repulsion  :            9.67932085 Eh             263.38771 eV
Electronic Energy  :          -49.51725406 Eh           -1347.43299 eV
One Electron Energy:          -71.66780456 Eh           -1950.18011 eV
Two Electron Energy:           22.15055050 Eh             602.74712 eV
Max COSX asymmetry :            0.00000027 Eh               0.00001 eV

Virial components:
Potential Energy   :          -79.46907293 Eh           -2162.46341 eV
Kinetic Energy     :           39.63113972 Eh            1078.41814 eV
Virial Ratio       :            2.00521795


DFT components:
N(Alpha)           :        5.000001326227 electrons
N(Beta)            :        4.000000348530 electrons
N(Total)           :        9.000001674757 electrons
E(XC)              :       -4.312431685426 Eh       
DFET-embed. en.    :        0.000000000000 Eh       

---------------
SCF CONVERGENCE
---------------

  Last Energy change         ...   -3.7740e-10  Tolerance :   1.0000e-08
  Last MAX-Density change    ...    0.0000e+00  Tolerance :   1.0000e-07
  Last RMS-Density change    ...    0.0000e+00  Tolerance :   5.0000e-09
  Last DIIS Error            ...    9.1494e-07  Tolerance :   5.0000e-07

             **** THE GBW FILE WAS UPDATED (/beegfs/scratch/ispackman/PFAS_EPR_calcs/benchmark/JChemEd_CF3_radical/CH3_radical_117.5_degrees_IN-PROGRESS/CH3_radical_117.5_degrees.gbw) ****
             **** DENSITY /beegfs/scratch/ispackman/PFAS_EPR_calcs/benchmark/JChemEd_CF3_radical/CH3_radical_117.5_degrees_IN-PROGRESS/CH3_radical_117.5_degrees.scfp WAS UPDATED ****
             **** ENERGY FILE WAS UPDATED (/beegfs/scratch/ispackman/PFAS_EPR_calcs/benchmark/JChemEd_CF3_radical/CH3_radical_117.5_degrees_IN-PROGRESS/CH3_radical_117.5_degrees.en.tmp) ****
----------------------
UHF SPIN CONTAMINATION
----------------------

Warning: in a DFT calculation there is little theoretical justification to 
         calculate <S**2> as in Hartree-Fock theory. We will do it anyways
         but you should keep in mind that the values have only limited relevance

Expectation value of <S**2>     :     0.753559
Ideal value S*(S+1) for S=0.5   :     0.750000
Deviation                       :     0.003559

             **** THE GBW FILE WAS UPDATED (/beegfs/scratch/ispackman/PFAS_EPR_calcs/benchmark/JChemEd_CF3_radical/CH3_radical_117.5_degrees_IN-PROGRESS/CH3_radical_117.5_degrees.gbw) ****
             **** DENSITY /beegfs/scratch/ispackman/PFAS_EPR_calcs/benchmark/JChemEd_CF3_radical/CH3_radical_117.5_degrees_IN-PROGRESS/CH3_radical_117.5_degrees.scfp WAS UPDATED ****
----------------
ORBITAL ENERGIES
----------------
                 SPIN UP ORBITALS
  NO   OCC          E(Eh)            E(eV) 
   0   1.0000     -10.286710      -279.9156 
   1   1.0000      -0.804045       -21.8792 
   2   1.0000      -0.518419       -14.1069 
   3   1.0000      -0.518410       -14.1067 
   4   1.0000      -0.334470        -9.1014 
   5   0.0000       0.076374         2.0783 
   6   0.0000       0.161304         4.3893 
   7   0.0000       0.161305         4.3893 
   8   0.0000       0.199342         5.4244 
   9   0.0000       0.202590         5.5127 
  10   0.0000       0.202591         5.5128 
  11   0.0000       0.232039         6.3141 
  12   0.0000       0.256184         6.9711 
  13   0.0000       0.256185         6.9711 
  14   0.0000       0.306809         8.3487 
  15   0.0000       0.367456         9.9990 
  16   0.0000       0.367456         9.9990 
  17   0.0000       0.368798        10.0355 
  18   0.0000       0.369877        10.0649 
  19   0.0000       0.390931        10.6378 
  20   0.0000       0.390934        10.6379 
  21   0.0000       0.460321        12.5260 
  22   0.0000       0.460326        12.5261 
  23   0.0000       0.500648        13.6233 
  24   0.0000       0.526389        14.3238 
  25   0.0000       0.529531        14.4093 
  26   0.0000       0.529535        14.4094 
  27   0.0000       0.777435        21.1551 
  28   0.0000       0.801434        21.8081 
  29   0.0000       0.801443        21.8084 
  30   0.0000       0.887237        24.1429 
  31   0.0000       0.887241        24.1430 
  32   0.0000       1.058279        28.7972 
  33   0.0000       1.062360        28.9083 
  34   0.0000       1.062378        28.9088 
  35   0.0000       1.565970        42.6122 
  36   0.0000       1.672718        45.5170 
  37   0.0000       1.725884        46.9637 
  38   0.0000       1.848317        50.2953 
  39   0.0000       1.848367        50.2966 
  40   0.0000       1.946169        52.9579 
  41   0.0000       1.946207        52.9590 
  42   0.0000       2.009994        54.6947 
  43   0.0000       2.282721        62.1160 
  44   0.0000       2.367592        64.4254 
  45   0.0000       2.367605        64.4258 
  46   0.0000       2.485368        67.6303 
  47   0.0000       2.485421        67.6317 
  48   0.0000       2.709816        73.7379 
  49   0.0000       2.709856        73.7389 
  50   0.0000       2.777001        75.5660 
  51   0.0000       3.163495        86.0831 
  52   0.0000       3.163557        86.0848 
  53   0.0000       3.166578        86.1670 
  54   0.0000       3.304153        89.9106 
  55   0.0000       3.304205        89.9120 
  56   0.0000       3.437373        93.5357 
  57   0.0000       3.437402        93.5365 
  58   0.0000       3.617201        98.4290 
  59   0.0000       3.676565       100.0444 
  60   0.0000       4.317896       117.4959 
  61   0.0000       4.317969       117.4979 
  62   0.0000       4.724091       128.5491 
  63   0.0000      22.203129       604.1779 

                 SPIN DOWN ORBITALS
  NO   OCC          E(Eh)            E(eV) 
   0   1.0000     -10.276474      -279.6371 
   1   1.0000      -0.759945       -20.6791 
   2   1.0000      -0.505530       -13.7562 
   3   1.0000      -0.505493       -13.7552 
   4   0.0000       0.005320         0.1448 
   5   0.0000       0.086435         2.3520 
   6   0.0000       0.165237         4.4963 
   7   0.0000       0.165245         4.4966 
   8   0.0000       0.203257         5.5309 
   9   0.0000       0.203260         5.5310 
  10   0.0000       0.223439         6.0801 
  11   0.0000       0.261927         7.1274 
  12   0.0000       0.261931         7.1275 
  13   0.0000       0.262622         7.1463 
  14   0.0000       0.317819         8.6483 
  15   0.0000       0.369989        10.0679 
  16   0.0000       0.374891        10.2013 
  17   0.0000       0.374901        10.2016 
  18   0.0000       0.375537        10.2189 
  19   0.0000       0.396317        10.7843 
  20   0.0000       0.396323        10.7845 
  21   0.0000       0.467210        12.7134 
  22   0.0000       0.467216        12.7136 
  23   0.0000       0.525317        14.2946 
  24   0.0000       0.529303        14.4031 
  25   0.0000       0.529303        14.4031 
  26   0.0000       0.541472        14.7342 
  27   0.0000       0.788451        21.4548 
  28   0.0000       0.808583        22.0027 
  29   0.0000       0.808589        22.0028 
  30   0.0000       0.917368        24.9628 
  31   0.0000       0.917379        24.9632 
  32   0.0000       1.067604        29.0510 
  33   0.0000       1.067611        29.0512 
  34   0.0000       1.081144        29.4194 
  35   0.0000       1.626903        44.2703 
  36   0.0000       1.672394        45.5082 
  37   0.0000       1.744255        47.4636 
  38   0.0000       1.860912        50.6380 
  39   0.0000       1.860973        50.6397 
  40   0.0000       1.958668        53.2981 
  41   0.0000       1.958720        53.2995 
  42   0.0000       2.026423        55.1418 
  43   0.0000       2.285981        62.2047 
  44   0.0000       2.372051        64.5468 
  45   0.0000       2.372084        64.5477 
  46   0.0000       2.500868        68.0521 
  47   0.0000       2.500894        68.0528 
  48   0.0000       2.720194        74.0202 
  49   0.0000       2.720228        74.0212 
  50   0.0000       2.819013        76.7092 
  51   0.0000       3.211980        87.4024 
  52   0.0000       3.223946        87.7280 
  53   0.0000       3.223992        87.7293 
  54   0.0000       3.341346        90.9227 
  55   0.0000       3.341494        90.9267 
  56   0.0000       3.468463        94.3817 
  57   0.0000       3.468476        94.3820 
  58   0.0000       3.659479        99.5795 
  59   0.0000       3.689423       100.3943 
  60   0.0000       4.339245       118.0769 
  61   0.0000       4.339393       118.0809 
  62   0.0000       4.748188       129.2048 
  63   0.0000      22.223833       604.7412 

                    ********************************
                    * MULLIKEN POPULATION ANALYSIS *
                    ********************************

--------------------------------------------
MULLIKEN ATOMIC CHARGES AND SPIN POPULATIONS
--------------------------------------------
   0 C :   -0.736272    0.911115
   1 H :    0.245319    0.029545
   2 H :    0.245477    0.029670
   3 H :    0.245476    0.029669
Sum of atomic charges         :   -0.0000000
Sum of atomic spin populations:    1.0000000

-----------------------------------------------------
MULLIKEN REDUCED ORBITAL CHARGES AND SPIN POPULATIONS
-----------------------------------------------------
CHARGE
  0 C s       :     3.451658  s :     3.451658
      pz      :     0.929380  p :     3.252525
      px      :     1.161510
      py      :     1.161635
      dz2     :     0.004154  d :     0.030177
      dxz     :     0.002498
      dyz     :     0.002501
      dx2y2   :     0.010509
      dxy     :     0.010515
      f0      :     0.000184  f :     0.001912
      f+1     :     0.000403
      f-1     :     0.000404
      f+2     :    -0.000039
      f-2     :    -0.000038
      f+3     :     0.000999
      f-3     :     0.000000
  1 H s       :     0.705704  s :     0.705704
      pz      :     0.022866  p :     0.048977
      px      :     0.020413
      py      :     0.005698
  2 H s       :     0.705639  s :     0.705639
      pz      :     0.022806  p :     0.048884
      px      :     0.009373
      py      :     0.016705
  3 H s       :     0.705640  s :     0.705640
      pz      :     0.022806  p :     0.048884
      px      :     0.009373
      py      :     0.016705

SPIN
  0 C s       :    -0.039194  s :    -0.039194
      pz      :     0.915867  p :     0.955192
      px      :     0.019674
      py      :     0.019651
      dz2     :    -0.003895  d :    -0.003540
      dxz     :    -0.000614
      dyz     :    -0.000617
      dx2y2   :     0.000785
      dxy     :     0.000800
      f0      :    -0.000082  f :    -0.001343
      f+1     :    -0.000570
      f-1     :    -0.000570
      f+2     :    -0.000007
      f-2     :    -0.000008
      f+3     :    -0.000106
      f-3     :    -0.000000
  1 H s       :    -0.000303  s :    -0.000303
      pz      :     0.022366  p :     0.029849
      px      :     0.004371
      py      :     0.003112
  2 H s       :    -0.000147  s :    -0.000147
      pz      :     0.022308  p :     0.029817
      px      :     0.003420
      py      :     0.004088
  3 H s       :    -0.000148  s :    -0.000148
      pz      :     0.022308  p :     0.029817
      px      :     0.003420
      py      :     0.004088


                     *******************************
                     * LOEWDIN POPULATION ANALYSIS *
                     *******************************

-------------------------------------------
LOEWDIN ATOMIC CHARGES AND SPIN POPULATIONS
-------------------------------------------
   0 C :    0.060433    0.834702
   1 H :   -0.020156    0.055104
   2 H :   -0.020139    0.055097
   3 H :   -0.020139    0.055097

----------------------------------------------------
LOEWDIN REDUCED ORBITAL CHARGES AND SPIN POPULATIONS
----------------------------------------------------
CHARGE
  0 C s       :     2.912757  s :     2.912757
      pz      :     0.790549  p :     2.908259
      px      :     1.058849
      py      :     1.058861
      dz2     :     0.011574  d :     0.109490
      dxz     :     0.004335
      dyz     :     0.004336
      dx2y2   :     0.044625
      dxy     :     0.044620
      f0      :     0.000361  f :     0.009061
      f+1     :     0.001832
      f-1     :     0.001832
      f+2     :     0.000714
      f-2     :     0.000715
      f+3     :     0.003608
      f-3     :     0.000000
  1 H s       :     0.761381  s :     0.761381
      pz      :     0.067548  p :     0.258775
      px      :     0.125427
      py      :     0.065800
  2 H s       :     0.761379  s :     0.761379
      pz      :     0.067536  p :     0.258760
      px      :     0.080707
      py      :     0.110517
  3 H s       :     0.761379  s :     0.761379
      pz      :     0.067536  p :     0.258760
      px      :     0.080707
      py      :     0.110517

SPIN
  0 C s       :     0.033900  s :     0.033900
      pz      :     0.780327  p :     0.810731
      px      :     0.015214
      py      :     0.015190
      dz2     :    -0.003051  d :    -0.008480
      dxz     :    -0.000527
      dyz     :    -0.000529
      dx2y2   :    -0.002193
      dxy     :    -0.002180
      f0      :    -0.000065  f :    -0.001449
      f+1     :    -0.000535
      f-1     :    -0.000535
      f+2     :    -0.000037
      f-2     :    -0.000037
      f+3     :    -0.000239
      f-3     :    -0.000000
  1 H s       :    -0.013246  s :    -0.013246
      pz      :     0.065459  p :     0.068350
      px      :     0.003382
      py      :    -0.000491
  2 H s       :    -0.013249  s :    -0.013249
      pz      :     0.065451  p :     0.068346
      px      :     0.000474
      py      :     0.002421
  3 H s       :    -0.013249  s :    -0.013249
      pz      :     0.065451  p :     0.068346
      px      :     0.000474
      py      :     0.002421


                      *****************************
                      * MAYER POPULATION ANALYSIS *
                      *****************************

  NA   - Mulliken gross atomic population
  ZA   - Total nuclear charge
  QA   - Mulliken gross atomic charge
  VA   - Mayer's total valence
  BVA  - Mayer's bonded valence
  FA   - Mayer's free valence

  ATOM       NA         ZA         QA         VA         BVA        FA
  0 C      6.7363     6.0000    -0.7363     3.7263     2.8681     0.8582
  1 H      0.7547     1.0000     0.2453     0.9948     0.9933     0.0015
  2 H      0.7545     1.0000     0.2455     0.9945     0.9930     0.0015
  3 H      0.7545     1.0000     0.2455     0.9945     0.9930     0.0015

  Mayer bond orders larger than 0.100000
B(  0-C ,  1-H ) :   0.9563 B(  0-C ,  2-H ) :   0.9559 B(  0-C ,  3-H ) :   0.9559 


-------
TIMINGS
-------

Total SCF time: 0 days 0 hours 0 min 7 sec 

Total time                  ....       7.953 sec
Sum of individual times     ....       7.311 sec  ( 91.9%)

Fock matrix formation       ....       6.072 sec  ( 76.4%)
  Split-RI-J                ....       0.834 sec  ( 13.7% of F)
  Chain of spheres X        ....       1.329 sec  ( 21.9% of F)
  XC integration            ....       1.332 sec  ( 21.9% of F)
    Basis function eval.    ....       0.054 sec  (  4.0% of XC)
    Density eval.           ....       0.056 sec  (  4.2% of XC)
    XC-Functional eval.     ....       0.056 sec  (  4.2% of XC)
    XC-Potential eval.      ....       0.077 sec  (  5.8% of XC)
Diagonalization             ....       0.178 sec  (  2.2%)
Density matrix formation    ....       0.008 sec  (  0.1%)
Population analysis         ....       0.148 sec  (  1.9%)
Initial guess               ....       0.114 sec  (  1.4%)
Orbital Transformation      ....       0.000 sec  (  0.0%)
Orbital Orthonormalization  ....       0.000 sec  (  0.0%)
DIIS solution               ....       0.394 sec  (  5.0%)
Grid generation             ....       0.398 sec  (  5.0%)

Maximum memory used throughout the entire SCF-calculation: 58.5 MB


-------------------------------------------------------------------------------
                          DFT DISPERSION CORRECTION                            
                                                                               
                              DFTD3 V3.1  Rev 1                                
                              USING zero damping                               
-------------------------------------------------------------------------------
The omegaB97X-D3 functional is recognized. Fit by Chai et al.
Active option DFTDOPT                   ...         3   

molecular C6(AA) [au] = 106.962162 


            DFT-D V3
 parameters
 s6 scaling factor         :     1.0000 
 rs6 scaling factor        :     1.2810 
 s8 scaling factor         :     1.0000 
 rs8 scaling factor        :     1.0940 
 Damping factor alpha6     :    14.0000 
 Damping factor alpha8     :    16.0000 
 ad hoc parameters k1-k3   :    16.0000     1.3333    -4.0000 

 Edisp/kcal,au: -0.010445729315  -0.000016646327 
 E6   /kcal   :  -0.001630345 
 E8   /kcal   :  -0.008815384 
 % E8         :  84.392232887 

-------------------------   ----------------
Dispersion correction           -0.000016646
-------------------------   ----------------


-------------------------   --------------------
FINAL SINGLE POINT ENERGY       -39.837949854682
-------------------------   --------------------



           ************************************************************
           *        Program running with 18 parallel MPI-processes    *
           *              working on a common directory               *
           ************************************************************
------------------------------------------------------------------------------
                         ORCA SCF GRADIENT CALCULATION
------------------------------------------------------------------------------

 ... reading COSX grid (gridx3)
Gradient of the Kohn-Sham DFT energy:
Kohn-Sham wavefunction type      ... UKS
Hartree-Fock exchange scaling    ...    0.196
Number of operators              ...    2
Number of atoms                  ...    4
Basis set dimensions             ...   64
Integral neglect threshold       ... 2.5e-11
Integral primitive cutoff        ... 2.5e-12
SHARK Integral package           ... ON

Nuc. rep. gradient       (SHARK) ... done (  0.0 sec)
HCore & Overlap gradient (SHARK) ... done (  0.0 sec)
RI-J gradient            (SHARK) ... done (  0.1 sec)
COSX-gradient                    ... done (  0.1 sec)
Exchange-correlation gradient    ... done
Dispersion correction            ... done

------------------
CARTESIAN GRADIENT
------------------

WARNING: THERE ARE 3 CONSTRAINED CARTESIAN COORDINATES
   1   C   :    0.000029731    0.000000002    0.011106018
   2   H   :   -0.002012530    0.000000024   -0.003723569
   3   H   :    0.000991653   -0.001737320   -0.003694654
   4   H   :    0.000991663    0.001737292   -0.003694668

Difference to translation invariance:
           :    0.0000005164   -0.0000000025   -0.0000068734

Difference to rotation invariance:
           :    0.0000000223    0.0000677629    0.0000000938

Norm of the cartesian gradient     ...    0.0132877402
RMS gradient                       ...    0.0038358402
MAX gradient                       ...    0.0111060181

-------
TIMINGS
-------

Total SCF gradient time            ...        0.609 sec

One electron gradient       ....       0.007 sec  (  1.1%)
RI-J Coulomb gradient       ....       0.129 sec  ( 21.1%)
COSX gradient               ....       0.122 sec  ( 20.0%)
XC gradient                 ....       0.069 sec  ( 11.4%)

Maximum memory used throughout the entire SCFGRAD-calculation: 33.6 MB
------------------------------------------------------------------------------
                         ORCA GEOMETRY RELAXATION STEP
------------------------------------------------------------------------------

Reading the OPT-File                    .... done
Getting information on internals        .... done
Copying old internal coords+grads       .... done
Making the new internal coordinates     .... (new redundants).... done
Validating the new internal coordinates .... (new redundants).... done
Calculating the B-matrix                .... done
Calculating the G,G- and P matrices     .... done
Transforming gradient to internals      .... done
Projecting the internal gradient        .... done
Number of atoms                         ....   4
Number of internal coordinates          ....   7
Current Energy                          ....   -39.837949855 Eh
Current gradient norm                   ....     0.013287740 Eh/bohr
Maximum allowed component of the step   ....  0.300
Current trust radius                    ....  0.300
Evaluating the initial hessian          ....  (Almloef) done
Projecting the Hessian                  .... done
Forming the augmented Hessian           .... done
Diagonalizing the augmented Hessian     .... done
Last element of RFO vector              ....  0.999979312
Lowest eigenvalues of augmented Hessian:
 -0.000015458  0.373574723  0.373574723  0.373590182 1000.000000000
Length of the computed step             ....  0.006432554
The final length of the internal step   ....  0.006432554
Converting the step to cartesian space:
 Initial RMS(Int)=    0.0024312768
Transforming coordinates:
 Iter   0:  RMS(Cart)=    0.0018390700 RMS(Int)=    0.0024312768
 Iter   1:  RMS(Cart)=    0.0000000000 RMS(Int)=    0.0000000000
Imposing constraints:
 Iter   0:  RMS(Cart)=    0.0000000001 RMS(Int)=    0.0000000010
CONVERGED
done
Storing new coordinates                 .... done

                                .--------------------.
          ----------------------|Geometry convergence|-------------------------
          Item                value                   Tolerance       Converged
          ---------------------------------------------------------------------
          RMS gradient        0.0009083012            0.0001000000      NO
          MAX gradient        0.0013951443            0.0003000000      NO
          RMS step            0.0024312768            0.0020000000      NO
          MAX step            0.0037344245            0.0040000000      YES
          ........................................................
          Max(Bonds)      0.0020      Max(Angles)    0.00
          Max(Dihed)        0.00      Max(Improp)    0.00
          ---------------------------------------------------------------------

The optimization has not yet converged - more geometry cycles are needed


    ---------------------------------------------------------------------------
                         Redundant Internal Coordinates
                            (Angstroem and degrees)

        Definition                    Value    dE/dq     Step     New-Value
    ----------------------------------------------------------------------------
     1. B(H   1,C   0)                1.0800 -0.001395  0.0020    1.0820   
     2. B(H   2,C   0)                1.0800 -0.001384  0.0020    1.0820   
     3. B(H   3,C   0)                1.0800 -0.001384  0.0020    1.0820   
     4. A(H   2,C   0,H   3)          117.50 -0.002878   -0.00    117.50 C 
     5. A(H   1,C   0,H   2)          117.50 -0.000812   -0.00    117.50 C 
     6. A(H   1,C   0,H   3)          117.50 -0.000812   -0.00    117.50 C 
     7. I(H   1,H   3,H   2,C   0)     27.12  0.007677   -0.00     27.12   
    ----------------------------------------------------------------------------

         *************************************************************
         *                GEOMETRY OPTIMIZATION CYCLE   2            *
         *************************************************************
---------------------------------
CARTESIAN COORDINATES (ANGSTROEM)
---------------------------------
  C     -0.000004   -0.000000    0.000235
  H      1.068087   -0.000000   -0.172544
  H     -0.534042    0.924980   -0.172544
  H     -0.534042   -0.924980   -0.172544

----------------------------
CARTESIAN COORDINATES (A.U.)
----------------------------
  NO LB      ZA    FRAG     MASS         X           Y           Z
   0 C     6.0000    0    12.011   -0.000008   -0.000000    0.000445
   1 H     1.0000    0     1.008    2.018393   -0.000000   -0.326061
   2 H     1.0000    0     1.008   -1.009192    1.747959   -0.326060
   3 H     1.0000    0     1.008   -1.009192   -1.747959   -0.326060

--------------------------------
INTERNAL COORDINATES (ANGSTROEM)
--------------------------------
 C      0   0   0     0.000000000000     0.00000000     0.00000000
 H      1   0   0     1.081976172295     0.00000000     0.00000000
 H      1   2   0     1.081959821092   117.50000000     0.00000000
 H      1   2   3     1.081959794398   117.50000000   149.07803254

---------------------------
INTERNAL COORDINATES (A.U.)
---------------------------
 C      0   0   0     0.000000000000     0.00000000     0.00000000
 H      1   0   0     2.044638649066     0.00000000     0.00000000
 H      1   2   0     2.044607749770   117.50000000     0.00000000
 H      1   2   3     2.044607699326   117.50000000   149.07803254



           ************************************************************
           *        Program running with 18 parallel MPI-processes    *
           *              working on a common directory               *
           ************************************************************
------------------------------------------------------------------------------
                   ___                                                        
                  /   \      - P O W E R E D   B Y -                         
                 /     \                                                     
                 |  |  |   _    _      __       _____    __    __             
                 |  |  |  | |  | |    /  \     |  _  \  |  |  /  |          
                  \  \/   | |  | |   /    \    | | | |  |  | /  /          
                 / \  \   | |__| |  /  /\  \   | |_| |  |  |/  /          
                |  |  |   |  __  | /  /__\  \  |    /   |      \           
                |  |  |   | |  | | |   __   |  |    \   |  |\   \          
                \     /   | |  | | |  |  |  |  | |\  \  |  | \   \       
                 \___/    |_|  |_| |__|  |__|  |_| \__\ |__|  \__/        
                                                                              
                      - O R C A' S   B I G   F R I E N D -                    
                                      &                                       
                       - I N T E G R A L  F E E D E R -                       
                                                                              
 v1 FN, 2020, v2 2021                                                         
------------------------------------------------------------------------------


Reading SHARK input file /beegfs/scratch/ispackman/PFAS_EPR_calcs/benchmark/JChemEd_CF3_radical/CH3_radical_117.5_degrees_IN-PROGRESS/CH3_radical_117.5_degrees.SHARKINP.tmp ... ok
----------------------
SHARK INTEGRAL PACKAGE
----------------------

Number of atoms                             ...      4
Number of basis functions                   ...     64
Number of shells                            ...     28
Maximum angular momentum                    ...      3
Integral batch strategy                     ... SHARK/LIBINT Hybrid
RI-J (if used) integral strategy            ... SPLIT-RIJ (Revised 2003 algorithm where possible)
Printlevel                                  ...      1
Contraction scheme used                     ... SEGMENTED contraction
Coulomb Range Separation                    ... NOT USED
Exchange Range Separation                   ... Long Range
   Mu parameter                             ...  0.250000
   Scaling (regular/separated)              ...  0.195728  0.804272
Finite Nucleus Model                        ... NOT USED
Auxiliary Coulomb fitting basis             ... AVAILABLE
   # of basis functions in Aux-J            ...     82
   # of shells in Aux-J                     ...     30
   Maximum angular momentum in Aux-J        ...      4
Auxiliary J/K fitting basis                 ... NOT available
Auxiliary Correlation fitting basis         ... NOT available
Auxiliary 'external' fitting basis          ... NOT available
Integral threshold                          ...     2.500000e-11
Primitive cut-off                           ...     2.500000e-12
Primitive pair pre-selection threshold      ...     2.500000e-12

Calculating pre-screening integrals         ... done (  0.1 sec) Dimension = 28
Organizing shell pair data                  ... done (  0.0 sec)
Shell pair information
Total number of shell pairs                 ...       406
Shell pairs after pre-screening             ...       406
Total number of primitive shell pairs       ...       977
Primitive shell pairs kept                  ...       944
          la=0 lb=0:    120 shell pairs
          la=1 lb=0:    135 shell pairs
          la=1 lb=1:     45 shell pairs
          la=2 lb=0:     45 shell pairs
          la=2 lb=1:     27 shell pairs
          la=2 lb=2:      6 shell pairs
          la=3 lb=0:     15 shell pairs
          la=3 lb=1:      9 shell pairs
          la=3 lb=2:      3 shell pairs
          la=3 lb=3:      1 shell pairs

Calculating one electron integrals          ... done (  0.0 sec)
Calculating RI/J V-Matrix + Cholesky decomp.... done (  0.1 sec)
Calculating Nuclear repulsion               ... done (  0.0 sec) ENN=      9.661739504470 Eh

SHARK setup successfully completed in   0.3 seconds

Maximum memory used throughout the entire GTOINT-calculation: 14.0 MB


           ************************************************************
           *        Program running with 18 parallel MPI-processes    *
           *              working on a common directory               *
           ************************************************************

Diagonalization of the overlap matrix:
Smallest eigenvalue                        ... 6.473e-05
Time for diagonalization                   ...    0.002 sec
Threshold for overlap eigenvalues          ... 1.000e-08
Number of eigenvalues below threshold      ... 0
Time for construction of square roots      ...    0.018 sec
Total time needed                          ...    0.021 sec

-------------------
DFT GRID GENERATION
-------------------

General Integration Accuracy     IntAcc      ... 4.388
Radial Grid Type                 RadialGrid  ... OptM3 with GC (2021)
Angular Grid (max. ang.)         AngularGrid ... 4 (Lebedev-302)
Angular grid pruning method      GridPruning ... 4 (adaptive)
Weight generation scheme         WeightScheme... Becke
Basis function cutoff            BFCut       ... 1.0000e-11
Integration weight cutoff        WCut        ... 1.0000e-14
Angular grids for H and He will be reduced by one unit
Partially contracted basis set               ... off
Rotationally invariant grid construction     ... off

Total number of grid points                  ...    17036
Total number of batches                      ...      268
Average number of points per batch           ...       63
Average number of grid points per atom       ...     4259
Time for grid setup =    0.088 sec

--------------------
COSX GRID GENERATION
--------------------

GRIDX 1
-------
General Integration Accuracy     IntAcc      ... 3.816
Radial Grid Type                 RadialGrid  ... OptM3 with GC (2021)
Angular Grid (max. ang.)         AngularGrid ... 1 (Lebedev-50)
Angular grid pruning method      GridPruning ... 4 (adaptive)
Weight generation scheme         WeightScheme... Becke
Basis function cutoff            BFCut       ... 1.0000e-11
Integration weight cutoff        WCut        ... 1.0000e-14
Angular grids for H and He will be reduced by one unit
Partially contracted basis set               ... on
Rotationally invariant grid construction     ... off

Total number of grid points                  ...     2149
Total number of batches                      ...       35
Average number of points per batch           ...       61
Average number of grid points per atom       ...      537
UseSFitting                                  ... on

GRIDX 2
-------
General Integration Accuracy     IntAcc      ... 4.020
Radial Grid Type                 RadialGrid  ... OptM3 with GC (2021)
Angular Grid (max. ang.)         AngularGrid ... 2 (Lebedev-110)
Angular grid pruning method      GridPruning ... 4 (adaptive)
Weight generation scheme         WeightScheme... Becke
Basis function cutoff            BFCut       ... 1.0000e-11
Integration weight cutoff        WCut        ... 1.0000e-14
Angular grids for H and He will be reduced by one unit
Partially contracted basis set               ... on
Rotationally invariant grid construction     ... off

Total number of grid points                  ...     5066
Total number of batches                      ...       82
Average number of points per batch           ...       61
Average number of grid points per atom       ...     1266
UseSFitting                                  ... on

GRIDX 3
-------
General Integration Accuracy     IntAcc      ... 4.338
Radial Grid Type                 RadialGrid  ... OptM3 with GC (2021)
Angular Grid (max. ang.)         AngularGrid ... 3 (Lebedev-194)
Angular grid pruning method      GridPruning ... 4 (adaptive)
Weight generation scheme         WeightScheme... Becke
Basis function cutoff            BFCut       ... 1.0000e-11
Integration weight cutoff        WCut        ... 1.0000e-14
Angular grids for H and He will be reduced by one unit
Partially contracted basis set               ... on
Rotationally invariant grid construction     ... off

Total number of grid points                  ...    11729
Total number of batches                      ...      186
Average number of points per batch           ...       63
Average number of grid points per atom       ...     2932
UseSFitting                                  ... on

Time for X-Grid setup             =    0.273 sec

--------------
SCF ITERATIONS
--------------
ITER       Energy         Delta-E        Max-DP      RMS-DP      [F,P]     Damp
               ***  Starting incremental Fock matrix formation  ***
  0    -39.8379335374   0.000000000000 0.00018913  0.00000699  0.0005260 0.7000
  1    -39.8379342338  -0.000000696437 0.00016527  0.00000556  0.0003610 0.7000
                               ***Turning on DIIS***
  2    -39.8379347022  -0.000000468361 0.00043885  0.00001331  0.0002312 0.0000
               *** Restarting incremental Fock matrix formation ***
                                   *** Resetting DIIS ***
  3    -39.8379357495  -0.000001047283 0.00016095  0.00000449  0.0001119 0.0000
  4    -39.8379357826  -0.000000033072 0.00002491  0.00000113  0.0000498 0.0000
  5    -39.8379357944  -0.000000011826 0.00001857  0.00000066  0.0000140 0.0000
                 **** Energy Check signals convergence ****

               *****************************************************
               *                     SUCCESS                       *
               *           SCF CONVERGED AFTER   6 CYCLES          *
               *****************************************************

Old exchange energy                            =     -2.172510674 Eh
New exchange energy                            =     -2.172515637 Eh
Exchange energy change after final integration =     -0.000004963 Eh
Total energy after final integration           =    -39.837940759 Eh
Final COS-X integration done in                =     0.155 sec
Total Energy       :          -39.83794076 Eh           -1084.04548 eV
  Last Energy change         ...   -1.0894e-09  Tolerance :   1.0000e-08
  Last MAX-Density change    ...    0.0000e+00  Tolerance :   1.0000e-07
             **** THE GBW FILE WAS UPDATED (/beegfs/scratch/ispackman/PFAS_EPR_calcs/benchmark/JChemEd_CF3_radical/CH3_radical_117.5_degrees_IN-PROGRESS/CH3_radical_117.5_degrees.gbw) ****
             **** DENSITY /beegfs/scratch/ispackman/PFAS_EPR_calcs/benchmark/JChemEd_CF3_radical/CH3_radical_117.5_degrees_IN-PROGRESS/CH3_radical_117.5_degrees.scfp WAS UPDATED ****
             **** ENERGY FILE WAS UPDATED (/beegfs/scratch/ispackman/PFAS_EPR_calcs/benchmark/JChemEd_CF3_radical/CH3_radical_117.5_degrees_IN-PROGRESS/CH3_radical_117.5_degrees.en.tmp) ****
----------------------
UHF SPIN CONTAMINATION
----------------------

Warning: in a DFT calculation there is little theoretical justification to 
         calculate <S**2> as in Hartree-Fock theory. We will do it anyways
         but you should keep in mind that the values have only limited relevance

Expectation value of <S**2>     :     0.753579
Ideal value S*(S+1) for S=0.5   :     0.750000
Deviation                       :     0.003579

             **** THE GBW FILE WAS UPDATED (/beegfs/scratch/ispackman/PFAS_EPR_calcs/benchmark/JChemEd_CF3_radical/CH3_radical_117.5_degrees_IN-PROGRESS/CH3_radical_117.5_degrees.gbw) ****
             **** DENSITY /beegfs/scratch/ispackman/PFAS_EPR_calcs/benchmark/JChemEd_CF3_radical/CH3_radical_117.5_degrees_IN-PROGRESS/CH3_radical_117.5_degrees.scfp WAS UPDATED ****
Total SCF time: 0 days 0 hours 0 min 4 sec 

Maximum memory used throughout the entire SCF-calculation: 58.5 MB


-------------------------------------------------------------------------------
                          DFT DISPERSION CORRECTION                            
                                                                               
                              DFTD3 V3.1  Rev 1                                
                              USING zero damping                               
-------------------------------------------------------------------------------
-------------------------   ----------------
Dispersion correction           -0.000016890
-------------------------   ----------------


-------------------------   --------------------
FINAL SINGLE POINT ENERGY       -39.837957648340
-------------------------   --------------------



           ************************************************************
           *        Program running with 18 parallel MPI-processes    *
           *              working on a common directory               *
           ************************************************************
------------------------------------------------------------------------------
                         ORCA SCF GRADIENT CALCULATION
------------------------------------------------------------------------------

 ... reading COSX grid (gridx3)
Gradient of the Kohn-Sham DFT energy:
Kohn-Sham wavefunction type      ... UKS
Hartree-Fock exchange scaling    ...    0.196
Number of operators              ...    2
Number of atoms                  ...    4
Basis set dimensions             ...   64
Integral neglect threshold       ... 2.5e-11
Integral primitive cutoff        ... 2.5e-12
SHARK Integral package           ... ON

Nuc. rep. gradient       (SHARK) ... done (  0.0 sec)
HCore & Overlap gradient (SHARK) ... done (  0.0 sec)
RI-J gradient            (SHARK) ... done (  0.1 sec)
COSX-gradient                    ... done (  0.1 sec)
Exchange-correlation gradient    ... done
Dispersion correction            ... done

------------------
CARTESIAN GRADIENT
------------------

WARNING: THERE ARE 3 CONSTRAINED CARTESIAN COORDINATES
   1   C   :    0.000018383   -0.000000003    0.011635369
   2   H   :   -0.000636895   -0.000000015   -0.003900768
   3   H   :    0.000309262   -0.000556385   -0.003870759
   4   H   :    0.000309254    0.000556411   -0.003870756

Difference to translation invariance:
           :    0.0000000039    0.0000000078   -0.0000069133

Difference to rotation invariance:
           :   -0.0000000013    0.0000666986   -0.0000000713

Norm of the cartesian gradient     ...    0.0134825720
RMS gradient                       ...    0.0038920833
MAX gradient                       ...    0.0116353694

-------
TIMINGS
-------

Total SCF gradient time            ...        0.619 sec

One electron gradient       ....       0.007 sec  (  1.1%)
RI-J Coulomb gradient       ....       0.127 sec  ( 20.5%)
COSX gradient               ....       0.118 sec  ( 19.1%)
XC gradient                 ....       0.061 sec  (  9.9%)

Maximum memory used throughout the entire SCFGRAD-calculation: 33.6 MB
------------------------------------------------------------------------------
                         ORCA GEOMETRY RELAXATION STEP
------------------------------------------------------------------------------

Reading the OPT-File                    .... done
Getting information on internals        .... done
Copying old internal coords+grads       .... done
Making the new internal coordinates     .... (new redundants).... done
Validating the new internal coordinates .... (new redundants).... done
Calculating the B-matrix                .... done
Calculating the G,G- and P matrices     .... done
Transforming gradient to internals      .... done
Projecting the internal gradient        .... done
Number of atoms                         ....   4
Number of internal coordinates          ....   7
Current Energy                          ....   -39.837957648 Eh
Current gradient norm                   ....     0.013482572 Eh/bohr
Maximum allowed component of the step   ....  0.300
Current trust radius                    ....  0.300
Updating the Hessian (BFGS)             .... done
Forming the augmented Hessian           .... done
Diagonalizing the augmented Hessian     .... done
Last element of RFO vector              ....  0.999999999
Lowest eigenvalues of augmented Hessian:
 -0.000000001  0.371162771  0.373574723  0.373576731 999.999999979
Length of the computed step             ....  0.000042052
The final length of the internal step   ....  0.000042052
Converting the step to cartesian space:
 Initial RMS(Int)=    0.0000158940
Transforming coordinates:
 Iter   0:  RMS(Cart)=    0.0000120213 RMS(Int)=    0.0000158940
 Iter   1:  RMS(Cart)=    0.0000000000 RMS(Int)=    0.0000000000
Imposing constraints:
 Iter   0:  RMS(Cart)=    0.0000000001 RMS(Int)=    0.0000000009
CONVERGED
done
Storing new coordinates                 .... done

                                .--------------------.
          ----------------------|Geometry convergence|-------------------------
          Item                value                   Tolerance       Converged
          ---------------------------------------------------------------------
          Energy change      -0.0000077937            0.0000050000      NO
          RMS gradient        0.0000058993            0.0001000000      YES
          MAX gradient        0.0000091731            0.0003000000      YES
          RMS step            0.0000158940            0.0020000000      YES
          MAX step            0.0000247145            0.0040000000      YES
          ........................................................
          Max(Bonds)      0.0000      Max(Angles)    0.00
          Max(Dihed)        0.00      Max(Improp)    0.00
          ---------------------------------------------------------------------

       Everything but the energy has converged. However, the energy
       appears to be close enough to convergence to make sure that the
       final evaluation at the new geometry represents the equilibrium energy.
       Convergence will therefore be signaled now


                    ***********************HURRAY********************
                    ***        THE OPTIMIZATION HAS CONVERGED     ***
                    *************************************************


    ---------------------------------------------------------------------------
                         Redundant Internal Coordinates

                          --- Optimized Parameters ---  
                            (Angstroem and degrees)

        Definition                    OldVal   dE/dq     Step     FinalVal
    ----------------------------------------------------------------------------
     1. B(H   1,C   0)                1.0820 -0.000009  0.0000    1.0820   
     2. B(H   2,C   0)                1.0820 -0.000009  0.0000    1.0820   
     3. B(H   3,C   0)                1.0820 -0.000009  0.0000    1.0820   
     4. A(H   2,C   0,H   3)          117.50 -0.002852   -0.00    117.50 C 
     5. A(H   1,C   0,H   2)          117.50 -0.000804   -0.00    117.50 C 
     6. A(H   1,C   0,H   3)          117.50 -0.000804   -0.00    117.50 C 
     7. I(H   1,H   3,H   2,C   0)     27.12  0.007605    0.00     27.12   
    ----------------------------------------------------------------------------
                 *******************************************************
                 *** FINAL ENERGY EVALUATION AT THE STATIONARY POINT ***
                 ***               (AFTER    2 CYCLES)               ***
                 *******************************************************
---------------------------------
CARTESIAN COORDINATES (ANGSTROEM)
---------------------------------
  C     -0.000004   -0.000000    0.000237
  H      1.068100   -0.000000   -0.172545
  H     -0.534048    0.924991   -0.172544
  H     -0.534048   -0.924991   -0.172544

----------------------------
CARTESIAN COORDINATES (A.U.)
----------------------------
  NO LB      ZA    FRAG     MASS         X           Y           Z
   0 C     6.0000    0    12.011   -0.000008   -0.000000    0.000448
   1 H     1.0000    0     1.008    2.018416   -0.000000   -0.326062
   2 H     1.0000    0     1.008   -1.009204    1.747981   -0.326061
   3 H     1.0000    0     1.008   -1.009204   -1.747981   -0.326061

--------------------------------
INTERNAL COORDINATES (ANGSTROEM)
--------------------------------
 C      0   0   0     0.000000000000     0.00000000     0.00000000
 H      1   0   0     1.081988568051     0.00000000     0.00000000
 H      1   2   0     1.081972878199   117.49999999     0.00000000
 H      1   2   3     1.081972872726   117.49999999   149.07803251

---------------------------
INTERNAL COORDINATES (A.U.)
---------------------------
 C      0   0   0     0.000000000000     0.00000000     0.00000000
 H      1   0   0     2.044662073650     0.00000000     0.00000000
 H      1   2   0     2.044632424127   117.49999999     0.00000000
 H      1   2   3     2.044632413785   117.49999999   149.07803251

---------------------
BASIS SET INFORMATION
---------------------
There are 2 groups of distinct atoms

 Group   1 Type C   : 12s6p3d1f contracted to 6s3p3d1f pattern {621111/411/111/1}
 Group   2 Type H   : 5s2p contracted to 3s2p pattern {311/11}

Atom   0C    basis set group =>   1
Atom   1H    basis set group =>   2
Atom   2H    basis set group =>   2
Atom   3H    basis set group =>   2
---------------------------------
AUXILIARY/J BASIS SET INFORMATION
---------------------------------
There are 2 groups of distinct atoms

 Group   1 Type C   : 12s5p4d2f1g contracted to 6s4p3d1f1g pattern {711111/2111/211/2/1}
 Group   2 Type H   : 5s2p1d contracted to 3s1p1d pattern {311/2/1}

Atom   0C    basis set group =>   1
Atom   1H    basis set group =>   2
[...]

  NA   - Mulliken gross atomic population
  ZA   - Total nuclear charge
  QA   - Mulliken gross atomic charge
  VA   - Mayer's total valence
  BVA  - Mayer's bonded valence
  FA   - Mayer's free valence

  ATOM       NA         ZA         QA         VA         BVA        FA
  0 C      6.7351     6.0000    -0.7351     3.7270     2.8683     0.8586
  1 H      0.7551     1.0000     0.2449     0.9953     0.9938     0.0015
  2 H      0.7549     1.0000     0.2451     0.9950     0.9935     0.0015
  3 H      0.7549     1.0000     0.2451     0.9950     0.9935     0.0015

  Mayer bond orders larger than 0.100000
B(  0-C ,  1-H ) :   0.9564 B(  0-C ,  2-H ) :   0.9560 B(  0-C ,  3-H ) :   0.9560 


-------
TIMINGS
-------

Total SCF time: 0 days 0 hours 0 min 3 sec 

Total time                  ....       3.909 sec
Sum of individual times     ....       3.306 sec  ( 84.6%)

Fock matrix formation       ....       2.638 sec  ( 67.5%)
  Split-RI-J                ....       0.433 sec  ( 16.4% of F)
  Chain of spheres X        ....       0.693 sec  ( 26.3% of F)
  XC integration            ....       0.498 sec  ( 18.9% of F)
    Basis function eval.    ....       0.022 sec  (  4.5% of XC)
    Density eval.           ....       0.021 sec  (  4.2% of XC)
    XC-Functional eval.     ....       0.022 sec  (  4.4% of XC)
    XC-Potential eval.      ....       0.023 sec  (  4.6% of XC)
Diagonalization             ....       0.064 sec  (  1.6%)
Density matrix formation    ....       0.018 sec  (  0.5%)
Population analysis         ....       0.152 sec  (  3.9%)
Initial guess               ....       0.006 sec  (  0.1%)
Orbital Transformation      ....       0.000 sec  (  0.0%)
Orbital Orthonormalization  ....       0.002 sec  (  0.0%)
DIIS solution               ....       0.064 sec  (  1.6%)
Grid generation             ....       0.365 sec  (  9.3%)

Maximum memory used throughout the entire SCF-calculation: 58.5 MB


-------------------------------------------------------------------------------
                          DFT DISPERSION CORRECTION                            
                                                                               
                              DFTD3 V3.1  Rev 1                                
                              USING zero damping                               
-------------------------------------------------------------------------------
The omegaB97X-D3 functional is recognized. Fit by Chai et al.
Active option DFTDOPT                   ...         3   

molecular C6(AA) [au] = 106.966543 


            DFT-D V3
 parameters
 s6 scaling factor         :     1.0000 
 rs6 scaling factor        :     1.2810 
 s8 scaling factor         :     1.0000 
 rs8 scaling factor        :     1.0940 
 Damping factor alpha6     :    14.0000 
 Damping factor alpha8     :    16.0000 
 ad hoc parameters k1-k3   :    16.0000     1.3333    -4.0000 

 Edisp/kcal,au: -0.010599416452  -0.000016891243 
 E6   /kcal   :  -0.001654426 
 E8   /kcal   :  -0.008944990 
 % E8         :  84.391345965 

-------------------------   ----------------
Dispersion correction           -0.000016891
-------------------------   ----------------


-------------------------   --------------------
FINAL SINGLE POINT ENERGY       -39.837957649187
-------------------------   --------------------

                                *** OPTIMIZATION RUN DONE ***

                            ***************************************
                            *     ORCA property calculations      *
                            ***************************************

                                    ---------------------
                                    Active property flags
                                    ---------------------
   (+) Dipole Moment


------------------------------------------------------------------------------
                       ORCA ELECTRIC PROPERTIES CALCULATION
------------------------------------------------------------------------------

Dipole Moment Calculation                       ... on
Quadrupole Moment Calculation                   ... off
Polarizability Calculation                      ... off
GBWName                                         ... /beegfs/scratch/ispackman/PFAS_EPR_calcs/benchmark/JChemEd_CF3_radical/CH3_radical_117.5_degrees_IN-PROGRESS/CH3_radical_117.5_degrees.gbw
Electron density                                ... /beegfs/scratch/ispackman/PFAS_EPR_calcs/benchmark/JChemEd_CF3_radical/CH3_radical_117.5_degrees_IN-PROGRESS/CH3_radical_117.5_degrees.scfp
The origin for moment calculation is the CENTER OF MASS  = (-0.000006, -0.000000 -0.065223)

-------------
DIPOLE MOMENT
-------------
                                X             Y             Z
Electronic contribution:     -0.00007       0.00000       0.25028
Nuclear contribution   :      0.00001       0.00000      -0.38849
                        -----------------------------------------
Total Dipole Moment    :     -0.00006       0.00000      -0.13820
                        -----------------------------------------
Magnitude (a.u.)       :      0.13820
Magnitude (Debye)      :      0.35129



--------------------
Rotational spectrum 
--------------------
 
Rotational constants in cm-1:     9.380851     9.380677     4.886487 
Rotational constants in MHz : 281230.838714 281225.618496 146493.191207 

 Dipole components along the rotational axes: 
x,y,z [a.u.] :    -0.000061    -0.000000    -0.138204 
x,y,z [Debye]:    -0.000154    -0.000000    -0.351287 

 


           ************************************************************
           *        Program running with 18 parallel MPI-processes    *
           *              working on a common directory               *
           ************************************************************

-------------------------------------------------------------------------------
                               ORCA SCF HESSIAN
-------------------------------------------------------------------------------

                   --------- SHARK INITIALIZATION DONE ---------

Hessian of the Kohn-Sham DFT energy:
Kohn-Sham wavefunction type                      ... UKS
Hartree-Fock exchange scaling                    ...    0.196
Number of operators                              ...    2
Number of atoms                                  ...    4
Basis set dimensions                             ...   64
Integral neglect threshold                       ... 2.5e-11
Integral primitive cutoff                        ... 2.5e-12

Setting up DFT Hessian calculations              ... 

HESS GRID
---------

General Integration Accuracy     IntAcc      ... 4.629
Radial Grid Type                 RadialGrid  ... OptM3 with GC (2021)
Angular Grid (max. ang.)         AngularGrid ... 5 (Lebedev-434)
Angular grid pruning method      GridPruning ... 4 (adaptive)
Weight generation scheme         WeightScheme... Becke
Basis function cutoff            BFCut       ... 1.0000e-11
Integration weight cutoff        WCut        ... 1.0000e-14
Angular grids for H and He will be reduced by one unit
Partially contracted basis set               ... off
Rotationally invariant grid construction     ... off

Total number of grid points                  ...    27247
Total number of batches                      ...      428
Average number of points per batch           ...       63
Average number of grid points per atom       ...     6812

Building densities                               ... done   (      0.0 sec)
Calculating rho(r) on the grid                   ... done   (      0.1 sec)
Building xc-kernel on the grid                   ... done   (      0.1 sec)
                                                     done   (      0.4 sec)

Nuclear repulsion Hessian  (SHARK)               ... done   (      0.0 sec)

----------------------------------------------
Forming right-hand sides of CP-SCF equations     ...
----------------------------------------------
One electron integral derivatives  (SHARK)       ... done   (      0.0 sec)
Transforming the overlap derivative matrices     ... done   (      0.0 sec)
Making the Q(x) pseudodensities                  ... done   (      0.0 sec)
Adding the E*S(x)*S(y) terms to the Hessian      ... done   (      0.0 sec)
Calculating energy weighted overlap derivatives  ... done   (      0.0 sec)
Two electron integral derivatives (SHARK-RI)     ... done   (      0.6 sec)
Exchange-correlation integral derivatives        ... done   (      0.4 sec)
tr(F(y)Q(x)) contribution to the Hessian         ... done   (      0.0 sec)
Response fock operator R(S(x)) (SHARK-RIJCOSX)   ... done   (      0.5 sec)
XC Response fock operator R(S(x))                ... done   (      0.1 sec)
tr(F(y)S(x)) contribution to the Hessian         ... done   (      0.0 sec)
Transforming and finalizing RHSs                 ... done   (      0.0 sec)

----------------------------------------------
Solving the CP-SCF equations (RIJCOSX)           ...
----------------------------------------------
     CP-SCF ITERATION   0:   8.1917e-02 (   0.3 sec   0/ 12 done)
     CP-SCF ITERATION   1:   2.9460e-02 (   0.3 sec   0/ 12 done)
     CP-SCF ITERATION   2:   7.3002e-03 (   0.3 sec   0/ 12 done)
     CP-SCF ITERATION   3:   2.0174e-03 (   0.3 sec   0/ 12 done)
     CP-SCF ITERATION   4:   4.1768e-04 (   0.3 sec   1/ 12 done)
     CP-SCF ITERATION   5:   8.4578e-05 (   0.3 sec  12/ 12 done)
                    *** THE CP-SCF HAS CONVERGED ***

                                                 ... done   (      2.0 sec)
Forming perturbed density Hessian contributions  ... done   (      0.0 sec)
2nd integral derivative contribs (SHARK-RI)      ... done   (      0.7 sec)
Exchange-correlation Hessian                     ... done   (      0.3 sec)
Dispersion correction in the Hessian             ... done   (      0.1 sec)
Dipole derivatives                               ... (center of mass: -0.000006, -0.000000 -0.065223)done   (      0.1 sec)

Total SCF Hessian time: 0 days 0 hours 0 min 5 sec 

Writing the Hessian file to the disk             ... done


Maximum memory used throughout the entire SCFHESS-calculation: 109.4 MB

-----------------------
VIBRATIONAL FREQUENCIES
-----------------------

Scaling factor for frequencies =  1.000000000  (already applied!)

   0:         0.00 cm**-1
   1:         0.00 cm**-1
   2:         0.00 cm**-1
   3:         0.00 cm**-1
   4:         0.00 cm**-1
   5:         0.00 cm**-1
   6:       774.35 cm**-1
   7:      1411.44 cm**-1
   8:      1416.09 cm**-1
   9:      3117.49 cm**-1
  10:      3282.56 cm**-1
  11:      3283.61 cm**-1


------------
NORMAL MODES
------------

These modes are the Cartesian displacements weighted by the diagonal matrix
M(i,i)=1/sqrt(m[i]) where m[i] is the mass of the displaced atom
Thus, these vectors are normalized but *not* orthogonal

                  0          1          2          3          4          5    
      0       0.000000   0.000000   0.000000   0.000000   0.000000   0.000000
      1       0.000000   0.000000   0.000000   0.000000   0.000000   0.000000
      2       0.000000   0.000000   0.000000   0.000000   0.000000   0.000000
      3       0.000000   0.000000   0.000000   0.000000   0.000000   0.000000
      4       0.000000   0.000000   0.000000   0.000000   0.000000   0.000000
      5       0.000000   0.000000   0.000000   0.000000   0.000000   0.000000
      6       0.000000   0.000000   0.000000   0.000000   0.000000   0.000000
      7       0.000000   0.000000   0.000000   0.000000   0.000000   0.000000
      8       0.000000   0.000000   0.000000   0.000000   0.000000   0.000000
      9       0.000000   0.000000   0.000000   0.000000   0.000000   0.000000
     10       0.000000   0.000000   0.000000   0.000000   0.000000   0.000000
     11       0.000000   0.000000   0.000000   0.000000   0.000000   0.000000
                  6          7          8          9         10         11    
      0       0.000516  -0.089536   0.000001   0.000264   0.098854  -0.000009
      1       0.000000   0.000001   0.089542  -0.000000   0.000009   0.098850
      2       0.142060   0.000716  -0.000000  -0.018507   0.000041  -0.000000
      3      -0.090267  -0.089287   0.000002  -0.574722  -0.800605   0.000074
      4      -0.000000  -0.000013  -0.800116   0.000000   0.000002   0.017078
      5      -0.563576  -0.117898   0.000002   0.073848   0.126867  -0.000012
      6       0.042058   0.578079  -0.384936   0.285787  -0.188621   0.354830
      7      -0.080667   0.384552  -0.133422  -0.494869   0.356227  -0.597508
      8      -0.564580   0.054688   0.099648   0.073339  -0.063668   0.110014
      9       0.042058   0.578092   0.384917   0.285787  -0.188686  -0.354794
     10       0.080667  -0.384557  -0.133409   0.494871  -0.356337  -0.597441
     11      -0.564580   0.054685  -0.099650   0.073340  -0.063688  -0.110002


-----------
IR SPECTRUM
-----------

 Mode   freq       eps      Int      T**2         TX        TY        TZ
       cm**-1   L/(mol*cm) km/mol    a.u.
----------------------------------------------------------------------------
  6:    774.35   0.010955   55.36  0.004415  ( 0.000162 -0.000000 -0.066445)
  7:   1411.44   0.000554    2.80  0.000122  ( 0.011061 -0.000000 -0.000309)
  8:   1416.09   0.000562    2.84  0.000124  (-0.000000 -0.011130 -0.000000)
  9:   3117.49   0.000004    0.02  0.000000  ( 0.000114 -0.000000 -0.000624)
 10:   3282.56   0.001552    7.84  0.000147  ( 0.012145  0.000001  0.000026)
 11:   3283.61   0.001524    7.70  0.000145  (-0.000001  0.012037 -0.000000)

* The epsilon (eps) is given for a Dirac delta lineshape.
** The dipole moment derivative (T) already includes vibrational overlap.

The first frequency considered to be a vibration is 6
The total number of vibrations considered is 6


--------------------------
THERMOCHEMISTRY AT 298.15K
--------------------------

Temperature         ... 298.15 K
Pressure            ... 1.00 atm
Total Mass          ... 15.03 AMU

Throughout the following assumptions are being made:
  (1) The electronic state is orbitally nondegenerate
      but the spin degeneracy is treated
  (2) There are no thermally accessible electronically excited states
  (3) Hindered rotations indicated by low frequency modes are not
      treated as such but are treated as vibrations and this may
      cause some error
  (4) All equations used are the standard statistical mechanics
      equations for an ideal gas
  (5) All vibrations are strictly harmonic

freq.     774.35  E(vib)   ...       0.05 
freq.    1411.44  E(vib)   ...       0.00 
freq.    1416.09  E(vib)   ...       0.00 
freq.    3117.49  E(vib)   ...       0.00 
freq.    3282.56  E(vib)   ...       0.00 
freq.    3283.61  E(vib)   ...       0.00 

------------
INNER ENERGY
------------

The inner energy is: U= E(el) + E(ZPE) + E(vib) + E(rot) + E(trans)
    E(el)   - is the total energy from the electronic structure calculation
              = E(kin-el) + E(nuc-el) + E(el-el) + E(nuc-nuc)
    E(ZPE)  - the the zero temperature vibrational energy from the frequency calculation
    E(vib)  - the the finite temperature correction to E(ZPE) due to population
              of excited vibrational states
    E(rot)  - is the rotational thermal energy
    E(trans)- is the translational thermal energy

Summary of contributions to the inner energy U:
Electronic energy                ...    -39.83795765 Eh
Zero point energy                ...      0.03026667 Eh      18.99 kcal/mol
Thermal vibrational correction   ...      0.00010020 Eh       0.06 kcal/mol
Thermal rotational correction    ...      0.00141627 Eh       0.89 kcal/mol
Thermal translational correction ...      0.00141627 Eh       0.89 kcal/mol
-----------------------------------------------------------------------
Total thermal energy                    -39.80475824 Eh


Summary of corrections to the electronic energy:
(perhaps to be used in another calculation)
Total thermal correction                  0.00293274 Eh       1.84 kcal/mol
Non-thermal (ZPE) correction              0.03026667 Eh      18.99 kcal/mol
-----------------------------------------------------------------------
Total correction                          0.03319941 Eh      20.83 kcal/mol


--------
ENTHALPY
--------

The enthalpy is H = U + kB*T
                kB is Boltzmann's constant
Total free energy                 ...    -39.80475824 Eh 
Thermal Enthalpy correction       ...      0.00094421 Eh       0.59 kcal/mol
-----------------------------------------------------------------------
Total Enthalpy                    ...    -39.80381403 Eh


Note: Rotational entropy computed according to Herzberg 
Infrared and Raman Spectra, Chapter V,1, Van Nostrand Reinhold, 1945 
Point Group:  C3v, Symmetry Number:   3  
Rotational constants in cm-1:     9.380851     9.380677     4.886487 

Vibrational entropy computed according to the QRRHO of S. Grimme
Chem.Eur.J. 2012 18 9955


-------
ENTROPY
-------

The entropy contributions are T*S = T*(S(el)+S(vib)+S(rot)+S(trans))
     S(el)   - electronic entropy
     S(vib)  - vibrational entropy
     S(rot)  - rotational entropy
     S(trans)- translational entropy
The entropies will be listed as multiplied by the temperature to get
units of energy

Electronic entropy                ...      0.00065446 Eh      0.41 kcal/mol
Vibrational entropy               ...      0.00012511 Eh      0.08 kcal/mol
Rotational entropy                ...      0.00561086 Eh      3.52 kcal/mol
Translational entropy             ...      0.01618771 Eh     10.16 kcal/mol
-----------------------------------------------------------------------
Final entropy term                ...      0.02257814 Eh     14.17 kcal/mol

In case the symmetry of your molecule has not been determined correctly
or in case you have a reason to use a different symmetry number we print 
out the resulting rotational entropy values for sn=1,12 :
 --------------------------------------------------------
|  sn= 1 | S(rot)=       0.00664815 Eh      4.17 kcal/mol|
|  sn= 2 | S(rot)=       0.00599369 Eh      3.76 kcal/mol|
|  sn= 3 | S(rot)=       0.00561086 Eh      3.52 kcal/mol|
|  sn= 4 | S(rot)=       0.00533924 Eh      3.35 kcal/mol|
|  sn= 5 | S(rot)=       0.00512855 Eh      3.22 kcal/mol|
|  sn= 6 | S(rot)=       0.00495640 Eh      3.11 kcal/mol|
|  sn= 7 | S(rot)=       0.00481086 Eh      3.02 kcal/mol|
|  sn= 8 | S(rot)=       0.00468478 Eh      2.94 kcal/mol|
|  sn= 9 | S(rot)=       0.00457357 Eh      2.87 kcal/mol|
|  sn=10 | S(rot)=       0.00447409 Eh      2.81 kcal/mol|
|  sn=11 | S(rot)=       0.00438410 Eh      2.75 kcal/mol|
|  sn=12 | S(rot)=       0.00430195 Eh      2.70 kcal/mol|
 --------------------------------------------------------


-------------------
GIBBS FREE ENERGY
-------------------

The Gibbs free energy is G = H - T*S

Total enthalpy                    ...    -39.80381403 Eh 
Total entropy correction          ...     -0.02257814 Eh    -14.17 kcal/mol
-----------------------------------------------------------------------
Final Gibbs free energy         ...    -39.82639217 Eh

For completeness - the Gibbs free energy minus the electronic energy
G-E(el)                           ...      0.01156548 Eh      7.26 kcal/mol


Timings for individual modules:

Sum of individual times         ...       48.913 sec (=   0.815 min)
GTO integral calculation        ...        8.260 sec (=   0.138 min)  16.9 %
SCF iterations                  ...       25.003 sec (=   0.417 min)  51.1 %
SCF Gradient evaluation         ...        6.024 sec (=   0.100 min)  12.3 %
Geometry relaxation             ...        0.130 sec (=   0.002 min)   0.3 %
Analytical frequency calculation...        9.495 sec (=   0.158 min)  19.4 %
                             ****ORCA TERMINATED NORMALLY****
TOTAL RUN TIME: 0 days 0 hours 0 minutes 56 seconds 472 msec

slurmID:    32260126
totalRuntime[s]:    56.511239015
