
                                 *****************
                                 * O   R   C   A *
                                 *****************

                                            #,                                       
                                            ###                                      
                                            ####                                     
                                            #####                                    
                                            ######                                   
                                           ########,                                 
                                     ,,################,,,,,                         
                               ,,#################################,,                 
                          ,,##########################################,,             
                       ,#########################################, ''#####,          
                    ,#############################################,,   '####,        
                  ,##################################################,,,,####,       
                ,###########''''           ''''###############################       
              ,#####''   ,,,,##########,,,,          '''####'''          '####       
            ,##' ,,,,###########################,,,                        '##       
           ' ,,###''''                  '''############,,,                           
         ,,##''                                '''############,,,,        ,,,,,,###''
      ,#''                                            '''#######################'''  
     '                                                          ''''####''''         
             ,#######,   #######,   ,#######,      ##                                
            ,#'     '#,  ##    ##  ,#'     '#,    #''#        ######   ,####,        
            ##       ##  ##   ,#'  ##            #'  '#       #        #'  '#        
            ##       ##  #######   ##           ,######,      #####,   #    #        
            '#,     ,#'  ##    ##  '#,     ,#' ,#      #,         ##   #,  ,#        
             '#######'   ##     ##  '#######'  #'      '#     #####' # '####'        



                  #######################################################
                  #                        -***-                        #
                  #          Department of theory and spectroscopy      #
                  #    Directorship and core code : Frank Neese         #
                  #        Max Planck Institute fuer Kohlenforschung    #
                  #                Kaiser Wilhelm Platz 1               #
                  #                 D-45470 Muelheim/Ruhr               #
                  #                      Germany                        #
                  #                                                     #
                  #                  All rights reserved                #
                  #                        -***-                        #
                  #######################################################


                         Program Version 5.0.4 -  RELEASE  -


 With contributions from (in alphabetic order):
   Daniel Aravena         : Magnetic Suceptibility
   Michael Atanasov       : Ab Initio Ligand Field Theory (pilot matlab implementation)
   Alexander A. Auer      : GIAO ZORA, VPT2 properties, NMR spectrum
   Ute Becker             : Parallelization
   Giovanni Bistoni       : ED, misc. LED, open-shell LED, HFLD
   Martin Brehm           : Molecular dynamics
   Dmytro Bykov           : SCF Hessian
   Vijay G. Chilkuri      : MRCI spin determinant printing, contributions to CSF-ICE
   Dipayan Datta          : RHF DLPNO-CCSD density
   Achintya Kumar Dutta   : EOM-CC, STEOM-CC
   Dmitry Ganyushin       : Spin-Orbit,Spin-Spin,Magnetic field MRCI
   Miquel Garcia          : C-PCM and meta-GGA Hessian, CC/C-PCM, Gaussian charge scheme
   Yang Guo               : DLPNO-NEVPT2, F12-NEVPT2, CIM, IAO-localization
   Andreas Hansen         : Spin unrestricted coupled pair/coupled cluster methods
   Benjamin Helmich-Paris : MC-RPA, TRAH-SCF, COSX integrals
   Lee Huntington         : MR-EOM, pCC
   Robert Izsak           : Overlap fitted RIJCOSX, COSX-SCS-MP3, EOM
   Marcus Kettner         : VPT2
   Christian Kollmar      : KDIIS, OOCD, Brueckner-CCSD(T), CCSD density, CASPT2, CASPT2-K
   Simone Kossmann        : Meta GGA functionals, TD-DFT gradient, OOMP2, MP2 Hessian
   Martin Krupicka        : Initial AUTO-CI
   Lucas Lang             : DCDCAS
   Marvin Lechner         : AUTO-CI (C++ implementation), FIC-MRCC
   Dagmar Lenk            : GEPOL surface, SMD
   Dimitrios Liakos       : Extrapolation schemes; Compound Job, initial MDCI parallelization
   Dimitrios Manganas     : Further ROCIS development; embedding schemes
   Dimitrios Pantazis     : SARC Basis sets
   Anastasios Papadopoulos: AUTO-CI, single reference methods and gradients
   Taras Petrenko         : DFT Hessian,TD-DFT gradient, ASA, ECA, R-Raman, ABS, FL, XAS/XES, NRVS
   Peter Pinski           : DLPNO-MP2, DLPNO-MP2 Gradient
   Christoph Reimann      : Effective Core Potentials
   Marius Retegan         : Local ZFS, SOC
   Christoph Riplinger    : Optimizer, TS searches, QM/MM, DLPNO-CCSD(T), (RO)-DLPNO pert. Triples
   Tobias Risthaus        : Range-separated hybrids, TD-DFT gradient, RPA, STAB
   Michael Roemelt        : Original ROCIS implementation
   Masaaki Saitow         : Open-shell DLPNO-CCSD energy and density
   Barbara Sandhoefer     : DKH picture change effects
   Avijit Sen             : IP-ROCIS
   Kantharuban Sivalingam : CASSCF convergence, NEVPT2, FIC-MRCI
   Bernardo de Souza      : ESD, SOC TD-DFT
   Georgi Stoychev        : AutoAux, RI-MP2 NMR, DLPNO-MP2 response
   Willem Van den Heuvel  : Paramagnetic NMR
   Boris Wezisla          : Elementary symmetry handling
   Frank Wennmohs         : Technical directorship


 We gratefully acknowledge several colleagues who have allowed us to
 interface, adapt or use parts of their codes:
   Stefan Grimme, W. Hujo, H. Kruse, P. Pracht,  : VdW corrections, initial TS optimization,
                  C. Bannwarth, S. Ehlert          DFT functionals, gCP, sTDA/sTD-DF
   Ed Valeev, F. Pavosevic, A. Kumar             : LibInt (2-el integral package), F12 methods
   Garnet Chan, S. Sharma, J. Yang, R. Olivares  : DMRG
   Ulf Ekstrom                                   : XCFun DFT Library
   Mihaly Kallay                                 : mrcc  (arbitrary order and MRCC methods)
   Jiri Pittner, Ondrej Demel                    : Mk-CCSD
   Frank Weinhold                                : gennbo (NPA and NBO analysis)
   Christopher J. Cramer and Donald G. Truhlar   : smd solvation model
   Lars Goerigk                                  : TD-DFT with DH, B97 family of functionals
   V. Asgeirsson, H. Jonsson                     : NEB implementation
   FAccTs GmbH                                   : IRC, NEB, NEB-TS, DLPNO-Multilevel, CI-OPT
                                                   MM, QMMM, 2- and 3-layer-ONIOM, Crystal-QMMM,
                                                   LR-CPCM, SF, NACMEs, symmetry and pop. for TD-DFT,
                                                   nearIR, NL-DFT gradient (VV10), updates on ESD,
                                                   ML-optimized integration grids
   S Lehtola, MJT Oliveira, MAL Marques          : LibXC Library
   Liviu Ungur et al                             : ANISO software


 Your calculation uses the libint2 library for the computation of 2-el integrals
 For citations please refer to: http://libint.valeyev.net

 Your ORCA version has been built with support for libXC version: 5.1.0
 For citations please refer to: https://tddft.org/programs/libxc/

 This ORCA versions uses:
   CBLAS   interface :  Fast vector & matrix operations
   LAPACKE interface :  Fast linear algebra routines
   SCALAPACK package :  Parallel linear algebra routines
   Shared memory     :  Shared parallel matrices
   BLAS/LAPACK       :  OpenBLAS 0.3.15  USE64BITINT DYNAMIC_ARCH NO_AFFINITY SkylakeX SINGLE_THREADED
        Core in use  :  SkylakeX
   Copyright (c) 2011-2014, The OpenBLAS Project


Your calculation utilizes the atom-pairwise dispersion correction
with the zero-damping scheme (D30)
Cite in your paper:
S.Grimme, J.Antony, S.Ehrlich and H.Krieg, J.Chem.Phys., 132, (2010), 154104 
   

XCFun DFT library Copyright 2009-2010 Ulf Ekstrom and contributors.
See http://admol.org/xcfun for more information.
This is free software; see the source code for copying conditions.
There is ABSOLUTELY NO WARRANTY; not even for MERCHANTABILITY or FITNESS FOR A PARTICULAR PURPOSE.
For details see the documentation.
Scientific users of this library should cite U. Ekstrom, L. Visscher, R. Bast, A. J. Thorvaldsen and K. Ruud;
J.Chem.Theor.Comp. 2010, DOI: 10.1021/ct100117s
XCFun Version 0.99 

================================================================================

----- Orbital basis set information -----
Your calculation utilizes the basis: def2-TZVPD
   F. Weigend and R. Ahlrichs, Phys. Chem. Chem. Phys. 7, 3297 (2005).
   D. Rappoport and F. Furche, J. Chem. Phys. 133 134105 (2010).

----- AuxJ basis set information -----
Your calculation utilizes the auxiliary basis: def2/J
   F. Weigend, Phys. Chem. Chem. Phys. 8, 1057 (2006).

================================================================================
                                        WARNINGS
                       Please study these warnings very carefully!
================================================================================


WARNING: Geometry Optimization
  ===> : Switching off AutoStart
         For restart on a previous wavefunction, please use MOREAD

INFO   : the flag for use of the SHARK integral package has been found!

================================================================================
                                       INPUT FILE
================================================================================
NAME = /beegfs/scratch/ispackman/PFAS_EPR_calcs/benchmark/JChemEd_CF3_radical/CH3_radical_114.5_degrees_IN-PROGRESS/CH3_radical_114.5_degrees.inp
|  1> ! UKS TightSCF wB97x-D3 def2-TZVPD xyzfile opt freq
|  2> 
|  3> # CH3 radical 114.5 degrees fixed
|  4> 
|  5> %maxcore 1000
|  6> %pal
|  7> nprocs 18
|  8> end
|  9> 
| 10> %geom Constraints
| 11>         { A * 0 * C }
| 12>     end
| 13> end
| 14> * xyz 0 2
| 15> C 0.00 0.00 0.00
| 16> H 1.0488400572 0.0000000000 -0.2575549155
| 17> H -0.5244200286 0.9083221340 -0.2575549155
| 18> H -0.5244200286 -0.9083221340 -0.2575549155
| 19> **                         ****END OF INPUT****
================================================================================

                       *****************************
                       * Geometry Optimization Run *
                       *****************************

Geometry optimization settings:
Update method            Update   .... BFGS
Choice of coordinates    CoordSys .... Z-matrix Internals
Initial Hessian          InHess   .... Almoef's Model

Convergence Tolerances:
Energy Change            TolE     ....  5.0000e-06 Eh
Max. Gradient            TolMAXG  ....  3.0000e-04 Eh/bohr
RMS Gradient             TolRMSG  ....  1.0000e-04 Eh/bohr
Max. Displacement        TolMAXD  ....  4.0000e-03 bohr
RMS Displacement         TolRMSD  ....  2.0000e-03 bohr
Strict Convergence                ....  False
------------------------------------------------------------------------------
                        ORCA OPTIMIZATION COORDINATE SETUP
------------------------------------------------------------------------------

The optimization will be done in new redundant internal coordinates
Making redundant internal coordinates   ...  (new redundants) done
Evaluating the initial hessian          ...  (Almloef) done
Evaluating the coordinates              ...  done
Calculating the B-matrix                .... done
Calculating the G-matrix                .... done
Diagonalizing the G-matrix              .... done
Imposing constraints:
 Iter   0:  RMS(Cart)=    0.0000000000 RMS(Int)=    0.0000000000
CONVERGED
Will constrain atom 0 coordinate 1 
Will constrain atom 0 coordinate 2 
Will constrain atom 1 coordinate 2 
The first mode is                       ....    1
The number of degrees of freedom        ....    6
Storing new coordinates                 .... done

    -----------------------------------------------------------------
                    Redundant Internal Coordinates


    -----------------------------------------------------------------
         Definition                    Initial Value    Approx d2E/dq
    -----------------------------------------------------------------
      1. B(H   1,C   0)                  1.0800         0.373575   
      2. B(H   2,C   0)                  1.0800         0.373575   
      3. B(H   3,C   0)                  1.0800         0.373575   
      4. A(H   2,C   0,H   3)          114.5000         0.294224 C 
      5. A(H   1,C   0,H   2)          114.5000         0.294224 C 
      6. A(H   1,C   0,H   3)          114.5000         0.294224 C 
      7. I(H   1,H   3,H   2,C   0)     39.9534         0.009584   
    -----------------------------------------------------------------

Number of atoms                         .... 4
Number of degrees of freedom            .... 7

         *************************************************************
         *                GEOMETRY OPTIMIZATION CYCLE   1            *
         *************************************************************
---------------------------------
CARTESIAN COORDINATES (ANGSTROEM)
---------------------------------
  C      0.000000    0.000000    0.000000
  H      1.048840    0.000000   -0.257555
  H     -0.524420    0.908322   -0.257555
  H     -0.524420   -0.908322   -0.257555

----------------------------
CARTESIAN COORDINATES (A.U.)
----------------------------
  NO LB      ZA    FRAG     MASS         X           Y           Z
   0 C     6.0000    0    12.011    0.000000    0.000000    0.000000
   1 H     1.0000    0     1.008    1.982020    0.000000   -0.486708
   2 H     1.0000    0     1.008   -0.991010    1.716480   -0.486708
   3 H     1.0000    0     1.008   -0.991010   -1.716480   -0.486708

--------------------------------
INTERNAL COORDINATES (ANGSTROEM)
--------------------------------
 C      0   0   0     0.000000000000     0.00000000     0.00000000
 H      1   0   0     1.080000000040     0.00000000     0.00000000
 H      1   2   0     1.080000000004   114.50000000     0.00000000
 H      1   2   3     1.080000000004   114.50000000   135.11347422

---------------------------
INTERNAL COORDINATES (A.U.)
---------------------------
 C      0   0   0     0.000000000000     0.00000000     0.00000000
 H      1   0   0     2.040904224710     0.00000000     0.00000000
 H      1   2   0     2.040904224643   114.50000000     0.00000000
 H      1   2   3     2.040904224643   114.50000000   135.11347422

---------------------
BASIS SET INFORMATION
---------------------
There are 2 groups of distinct atoms

 Group   1 Type C   : 12s6p3d1f contracted to 6s3p3d1f pattern {621111/411/111/1}
 Group   2 Type H   : 5s2p contracted to 3s2p pattern {311/11}

Atom   0C    basis set group =>   1
Atom   1H    basis set group =>   2
Atom   2H    basis set group =>   2
Atom   3H    basis set group =>   2
---------------------------------
AUXILIARY/J BASIS SET INFORMATION
---------------------------------
There are 2 groups of distinct atoms

 Group   1 Type C   : 12s5p4d2f1g contracted to 6s4p3d1f1g pattern {711111/2111/211/2/1}
 Group   2 Type H   : 5s2p1d contracted to 3s1p1d pattern {311/2/1}

Atom   0C    basis set group =>   1
Atom   1H    basis set group =>   2
Atom   2H    basis set group =>   2
Atom   3H    basis set group =>   2


           ************************************************************
           *        Program running with 18 parallel MPI-processes    *
           *              working on a common directory               *
           ************************************************************
------------------------------------------------------------------------------
                           ORCA GTO INTEGRAL CALCULATION
                           -- RI-GTO INTEGRALS CHOSEN --
------------------------------------------------------------------------------
------------------------------------------------------------------------------
                   ___                                                        
                  /   \      - P O W E R E D   B Y -                         
                 /     \                                                     
                 |  |  |   _    _      __       _____    __    __             
                 |  |  |  | |  | |    /  \     |  _  \  |  |  /  |          
                  \  \/   | |  | |   /    \    | | | |  |  | /  /          
                 / \  \   | |__| |  /  /\  \   | |_| |  |  |/  /          
                |  |  |   |  __  | /  /__\  \  |    /   |      \           
                |  |  |   | |  | | |   __   |  |    \   |  |\   \          
                \     /   | |  | | |  |  |  |  | |\  \  |  | \   \       
                 \___/    |_|  |_| |__|  |__|  |_| \__\ |__|  \__/        
                                                                              
                      - O R C A' S   B I G   F R I E N D -                    
                                      &                                       
                       - I N T E G R A L  F E E D E R -                       
                                                                              
 v1 FN, 2020, v2 2021                                                         
------------------------------------------------------------------------------


Reading SHARK input file /beegfs/scratch/ispackman/PFAS_EPR_calcs/benchmark/JChemEd_CF3_radical/CH3_radical_114.5_degrees_IN-PROGRESS/CH3_radical_114.5_degrees.SHARKINP.tmp ... ok
----------------------
SHARK INTEGRAL PACKAGE
----------------------

Number of atoms                             ...      4
Number of basis functions                   ...     64
Number of shells                            ...     28
Maximum angular momentum                    ...      3
Integral batch strategy                     ... SHARK/LIBINT Hybrid
RI-J (if used) integral strategy            ... SPLIT-RIJ (Revised 2003 algorithm where possible)
Printlevel                                  ...      1
Contraction scheme used                     ... SEGMENTED contraction
Coulomb Range Separation                    ... NOT USED
Exchange Range Separation                   ... Long Range
   Mu parameter                             ...  0.250000
   Scaling (regular/separated)              ...  0.195728  0.804272
Finite Nucleus Model                        ... NOT USED
Auxiliary Coulomb fitting basis             ... AVAILABLE
   # of basis functions in Aux-J            ...     82
   # of shells in Aux-J                     ...     30
   Maximum angular momentum in Aux-J        ...      4
Auxiliary J/K fitting basis                 ... NOT available
Auxiliary Correlation fitting basis         ... NOT available
Auxiliary 'external' fitting basis          ... NOT available
Integral threshold                          ...     2.500000e-11
Primitive cut-off                           ...     2.500000e-12
Primitive pair pre-selection threshold      ...     2.500000e-12

Calculating pre-screening integrals         ... done (  0.0 sec) Dimension = 28
Organizing shell pair data                  ... done (  0.0 sec)
Shell pair information
Total number of shell pairs                 ...       406
Shell pairs after pre-screening             ...       406
Total number of primitive shell pairs       ...       977
Primitive shell pairs kept                  ...       944
          la=0 lb=0:    120 shell pairs
          la=1 lb=0:    135 shell pairs
          la=1 lb=1:     45 shell pairs
          la=2 lb=0:     45 shell pairs
          la=2 lb=1:     27 shell pairs
          la=2 lb=2:      6 shell pairs
          la=3 lb=0:     15 shell pairs
          la=3 lb=1:      9 shell pairs
          la=3 lb=2:      3 shell pairs
          la=3 lb=3:      1 shell pairs

Calculating one electron integrals          ... done (  0.0 sec)
Calculating RI/J V-Matrix + Cholesky decomp.... done (  0.2 sec)
Calculating Nuclear repulsion               ... done (  0.0 sec) ENN=      9.693501531950 Eh

SHARK setup successfully completed in   0.7 seconds

Maximum memory used throughout the entire GTOINT-calculation: 14.0 MB


           ************************************************************
           *        Program running with 18 parallel MPI-processes    *
           *              working on a common directory               *
           ************************************************************
-------------------------------------------------------------------------------
                                 ORCA SCF
-------------------------------------------------------------------------------

------------
SCF SETTINGS
------------
Hamiltonian:
 Density Functional     Method          .... DFT(GTOs)
 Exchange Functional    Exchange        .... WB97X-D3
 Correlation Functional Correlation     .... WB97X-D3
 Gradients option       PostSCFGGA      .... off
 Hybrid DFT is turned on
   Fraction HF Exchange ScalHFX         ....  0.195728
   Scaling of DF-GGA-X  ScalDFX         ....  0.000000
   Scaling of DF-GGA-C  ScalDFC         ....  1.000000
   Scaling of DF-LDA-C  ScalLDAC        ....  1.000000
   Perturbative correction              ....  0.000000
   Density functional embedding theory  .... OFF
 Long-range corrected/Screened/Range-Separated Hybrid DFT is turned on
   Amount of maximum screened exact exchange              ....  0.804272
   Range separation parameter mu (erf(mu*r12)/r12)        ....  0.250000
 RI-approximation to the Coulomb term is turned on
   Number of AuxJ basis functions       .... 82
   RIJ-COSX (HFX calculated with COS-X)).... on


General Settings:
 Integral files         IntName         .... /beegfs/scratch/ispackman/PFAS_EPR_calcs/benchmark/JChemEd_CF3_radical/CH3_radical_114.5_degrees_IN-PROGRESS/CH3_radical_114.5_degrees
 Hartree-Fock type      HFTyp           .... UHF
 Total Charge           Charge          ....    0
 Multiplicity           Mult            ....    2
 Number of Electrons    NEL             ....    9
 Basis Dimension        Dim             ....   64
 Nuclear Repulsion      ENuc            ....      9.6935015319 Eh

Convergence Acceleration:
 DIIS                   CNVDIIS         .... on
   Start iteration      DIISMaxIt       ....    12
   Startup error        DIISStart       ....  0.200000
   # of expansion vecs  DIISMaxEq       ....     5
   Bias factor          DIISBfac        ....   1.050
   Max. coefficient     DIISMaxC        ....  10.000
 Trust-Rad. Augm. Hess. CNVTRAH         .... auto
   Auto Start mean grad. ratio tolernc. ....  1.125000
   Auto Start start iteration           ....    20
   Auto Start num. interpolation iter.  ....    10
   Max. Number of Micro iterations      ....    16
   Max. Number of Macro iterations      .... Maxiter - #DIIS iter
   Number of Davidson start vectors     ....     2
   Converg. threshold I  (grad. norm)   ....   1.000e-05
   Converg. threshold II (energy diff.) ....   1.000e-08
   Grad. Scal. Fac. for Micro threshold ....   0.100
   Minimum threshold for Micro iter.    ....   0.010
   NR start threshold (gradient norm)   ....   0.001
   Initial trust radius                 ....   0.400
   Minimum AH scaling param. (alpha)    ....   1.000
   Maximum AH scaling param. (alpha)    .... 1000.000
   Orbital update algorithm             .... Taylor
   White noise on init. David. guess    .... on
   Maximum white noise                  ....   0.010
   Quad. conv. algorithm                .... NR
 SOSCF                  CNVSOSCF        .... off
 Level Shifting         CNVShift        .... on
   Level shift para.    LevelShift      ....    0.2500
   Turn off err/grad.   ShiftErr        ....    0.0010
 Zerner damping         CNVZerner       .... off
 Static damping         CNVDamp         .... on
   Fraction old density DampFac         ....    0.7000
   Max. Damping (<1)    DampMax         ....    0.9800
   Min. Damping (>=0)   DampMin         ....    0.0000
   Turn off err/grad.   DampErr         ....    0.1000
 Fernandez-Rico         CNVRico         .... off

SCF Procedure:
 Maximum # iterations   MaxIter         ....   125
 SCF integral mode      SCFMode         .... Direct
   Integral package                     .... SHARK and LIBINT hybrid scheme
 Reset frequency        DirectResetFreq ....    20
 Integral Threshold     Thresh          ....  2.500e-11 Eh
 Primitive CutOff       TCut            ....  2.500e-12 Eh

Convergence Tolerance:
 Convergence Check Mode ConvCheckMode   .... Total+1el-Energy
 Convergence forced     ConvForced      .... 0
 Energy Change          TolE            ....  1.000e-08 Eh
 1-El. energy change                    ....  1.000e-05 Eh
 DIIS Error             TolErr          ....  5.000e-07


Diagonalization of the overlap matrix:
Smallest eigenvalue                        ... 5.950e-05
Time for diagonalization                   ...    0.002 sec
Threshold for overlap eigenvalues          ... 1.000e-08
Number of eigenvalues below threshold      ... 0
Time for construction of square roots      ...    0.088 sec
Total time needed                          ...    0.091 sec

Time for model grid setup =    0.111 sec

------------------------------
INITIAL GUESS: MODEL POTENTIAL
------------------------------
Loading Hartree-Fock densities                     ... done
Calculating cut-offs                               ... done
Initializing the effective Hamiltonian             ... done
Setting up the integral package (SHARK)            ... done
Starting the Coulomb interaction                   ... done (   0.2 sec)
Reading the grid                                   ... done
Mapping shells                                     ... done
Starting the XC term evaluation                    ... done (   0.0 sec)
  promolecular density results
     # of electrons  =      8.998189150
     EX              =     -5.933114453
     EC              =     -0.259144202
     EX+EC           =     -6.192258655
Transforming the Hamiltonian                       ... done (   0.0 sec)
Diagonalizing the Hamiltonian                      ... done (   0.0 sec)
Back transforming the eigenvectors                 ... done (   0.0 sec)
Now organizing SCF variables                       ... done
                      ------------------
                      INITIAL GUESS DONE (   0.3 sec)
                      ------------------
-------------------
DFT GRID GENERATION
-------------------

General Integration Accuracy     IntAcc      ... 4.388
Radial Grid Type                 RadialGrid  ... OptM3 with GC (2021)
Angular Grid (max. ang.)         AngularGrid ... 4 (Lebedev-302)
Angular grid pruning method      GridPruning ... 4 (adaptive)
Weight generation scheme         WeightScheme... Becke
Basis function cutoff            BFCut       ... 1.0000e-11
Integration weight cutoff        WCut        ... 1.0000e-14
Angular grids for H and He will be reduced by one unit
Partially contracted basis set               ... off
Rotationally invariant grid construction     ... off

Total number of grid points                  ...    17032
Total number of batches                      ...      268
Average number of points per batch           ...       63
Average number of grid points per atom       ...     4258
Time for grid setup =    0.182 sec

--------------------
COSX GRID GENERATION
--------------------

GRIDX 1
-------
General Integration Accuracy     IntAcc      ... 3.816
Radial Grid Type                 RadialGrid  ... OptM3 with GC (2021)
Angular Grid (max. ang.)         AngularGrid ... 1 (Lebedev-50)
Angular grid pruning method      GridPruning ... 4 (adaptive)
Weight generation scheme         WeightScheme... Becke
Basis function cutoff            BFCut       ... 1.0000e-11
Integration weight cutoff        WCut        ... 1.0000e-14
Angular grids for H and He will be reduced by one unit
Partially contracted basis set               ... on
Rotationally invariant grid construction     ... off

Total number of grid points                  ...     2150
Total number of batches                      ...       36
Average number of points per batch           ...       59
Average number of grid points per atom       ...      538
UseSFitting                                  ... on

GRIDX 2
-------
General Integration Accuracy     IntAcc      ... 4.020
Radial Grid Type                 RadialGrid  ... OptM3 with GC (2021)
Angular Grid (max. ang.)         AngularGrid ... 2 (Lebedev-110)
Angular grid pruning method      GridPruning ... 4 (adaptive)
Weight generation scheme         WeightScheme... Becke
Basis function cutoff            BFCut       ... 1.0000e-11
Integration weight cutoff        WCut        ... 1.0000e-14
Angular grids for H and He will be reduced by one unit
Partially contracted basis set               ... on
Rotationally invariant grid construction     ... off

Total number of grid points                  ...     5069
Total number of batches                      ...       81
Average number of points per batch           ...       62
Average number of grid points per atom       ...     1267
UseSFitting                                  ... on

GRIDX 3
-------
General Integration Accuracy     IntAcc      ... 4.338
Radial Grid Type                 RadialGrid  ... OptM3 with GC (2021)
Angular Grid (max. ang.)         AngularGrid ... 3 (Lebedev-194)
Angular grid pruning method      GridPruning ... 4 (adaptive)
Weight generation scheme         WeightScheme... Becke
Basis function cutoff            BFCut       ... 1.0000e-11
Integration weight cutoff        WCut        ... 1.0000e-14
Angular grids for H and He will be reduced by one unit
Partially contracted basis set               ... on
Rotationally invariant grid construction     ... off

Total number of grid points                  ...    11728
Total number of batches                      ...      186
Average number of points per batch           ...       63
Average number of grid points per atom       ...     2932
UseSFitting                                  ... on

Time for X-Grid setup             =    0.693 sec

--------------
SCF ITERATIONS
--------------
ITER       Energy         Delta-E        Max-DP      RMS-DP      [F,P]     Damp
               ***  Starting incremental Fock matrix formation  ***
  0    -39.7986207223   0.000000000000 0.02098114  0.00072549  0.0787111 0.7000
  1    -39.8124685460  -0.013847823734 0.02163375  0.00063183  0.0502137 0.7000
                               ***Turning on DIIS***
  2    -39.8202092833  -0.007740737320 0.04973193  0.00145524  0.0287186 0.0000
  3    -39.8333592906  -0.013150007240 0.01420275  0.00043780  0.0197907 0.0000
  4    -39.8349807562  -0.001621465655 0.00624614  0.00013395  0.0036034 0.0000
  5    -39.8350490469  -0.000068290667 0.00480548  0.00009891  0.0015806 0.0000
  6    -39.8350687629  -0.000019716031 0.00425951  0.00008693  0.0006488 0.0000
               *** Restarting incremental Fock matrix formation ***
                                   *** Resetting DIIS ***
  7    -39.8350770489  -0.000008285931 0.00080526  0.00001537  0.0000843 0.0000
  8    -39.8350771762  -0.000000127286 0.00033664  0.00000684  0.0000436 0.0000
  9    -39.8350772086  -0.000000032479 0.00001913  0.00000089  0.0000174 0.0000
 10    -39.8350772111  -0.000000002494 0.00001061  0.00000027  0.0000057 0.0000
                 **** Energy Check signals convergence ****

               *****************************************************
               *                     SUCCESS                       *
               *           SCF CONVERGED AFTER  11 CYCLES          *
               *****************************************************

Old exchange energy                            =     -2.173514618 Eh
New exchange energy                            =     -2.173520872 Eh
Exchange energy change after final integration =     -0.000006254 Eh
Total energy after final integration           =    -39.835083465 Eh
Final COS-X integration done in                =     0.163 sec

----------------
TOTAL SCF ENERGY
----------------

Total Energy       :          -39.83508347 Eh           -1083.96773 eV

Components:
Nuclear Repulsion  :            9.69350153 Eh             263.77359 eV
Electronic Energy  :          -49.52858500 Eh           -1347.74132 eV
One Electron Energy:          -71.68676796 Eh           -1950.69613 eV
Two Electron Energy:           22.15818296 Eh             602.95481 eV
Max COSX asymmetry :            0.00000034 Eh               0.00001 eV

Virial components:
Potential Energy   :          -79.47565278 Eh           -2162.64246 eV
Kinetic Energy     :           39.64056932 Eh            1078.67473 eV
Virial Ratio       :            2.00490695


DFT components:
N(Alpha)           :        5.000000493485 electrons
N(Beta)            :        4.000000438908 electrons
N(Total)           :        9.000000932392 electrons
E(XC)              :       -4.313849807817 Eh       
DFET-embed. en.    :        0.000000000000 Eh       

---------------
SCF CONVERGENCE
---------------

  Last Energy change         ...   -2.1924e-10  Tolerance :   1.0000e-08
  Last MAX-Density change    ...    0.0000e+00  Tolerance :   1.0000e-07
  Last RMS-Density change    ...    0.0000e+00  Tolerance :   5.0000e-09
  Last DIIS Error            ...    1.1440e-06  Tolerance :   5.0000e-07

             **** THE GBW FILE WAS UPDATED (/beegfs/scratch/ispackman/PFAS_EPR_calcs/benchmark/JChemEd_CF3_radical/CH3_radical_114.5_degrees_IN-PROGRESS/CH3_radical_114.5_degrees.gbw) ****
             **** DENSITY /beegfs/scratch/ispackman/PFAS_EPR_calcs/benchmark/JChemEd_CF3_radical/CH3_radical_114.5_degrees_IN-PROGRESS/CH3_radical_114.5_degrees.scfp WAS UPDATED ****
             **** ENERGY FILE WAS UPDATED (/beegfs/scratch/ispackman/PFAS_EPR_calcs/benchmark/JChemEd_CF3_radical/CH3_radical_114.5_degrees_IN-PROGRESS/CH3_radical_114.5_degrees.en.tmp) ****
----------------------
UHF SPIN CONTAMINATION
----------------------

Warning: in a DFT calculation there is little theoretical justification to 
         calculate <S**2> as in Hartree-Fock theory. We will do it anyways
         but you should keep in mind that the values have only limited relevance

Expectation value of <S**2>     :     0.753257
Ideal value S*(S+1) for S=0.5   :     0.750000
Deviation                       :     0.003257

             **** THE GBW FILE WAS UPDATED (/beegfs/scratch/ispackman/PFAS_EPR_calcs/benchmark/JChemEd_CF3_radical/CH3_radical_114.5_degrees_IN-PROGRESS/CH3_radical_114.5_degrees.gbw) ****
             **** DENSITY /beegfs/scratch/ispackman/PFAS_EPR_calcs/benchmark/JChemEd_CF3_radical/CH3_radical_114.5_degrees_IN-PROGRESS/CH3_radical_114.5_degrees.scfp WAS UPDATED ****
----------------
ORBITAL ENERGIES
----------------
                 SPIN UP ORBITALS
  NO   OCC          E(Eh)            E(eV) 
   0   1.0000     -10.288097      -279.9533 
   1   1.0000      -0.806366       -21.9423 
   2   1.0000      -0.514836       -14.0094 
   3   1.0000      -0.514806       -14.0086 
   4   1.0000      -0.343754        -9.3540 
   5   0.0000       0.076333         2.0771 
   6   0.0000       0.161408         4.3921 
   7   0.0000       0.161417         4.3924 
   8   0.0000       0.199752         5.4355 
   9   0.0000       0.199761         5.4358 
  10   0.0000       0.201224         5.4756 
  11   0.0000       0.225349         6.1321 
  12   0.0000       0.255018         6.9394 
  13   0.0000       0.255023         6.9395 
  14   0.0000       0.309060         8.4100 
  15   0.0000       0.364053         9.9064 
  16   0.0000       0.364056         9.9065 
  17   0.0000       0.369623        10.0579 
  18   0.0000       0.371393        10.1061 
  19   0.0000       0.388109        10.5610 
  20   0.0000       0.388111        10.5610 
  21   0.0000       0.436692        11.8830 
  22   0.0000       0.436697        11.8831 
  23   0.0000       0.509764        13.8714 
  24   0.0000       0.538800        14.6615 
  25   0.0000       0.541064        14.7231 
  26   0.0000       0.541066        14.7231 
  27   0.0000       0.779310        21.2061 
  28   0.0000       0.799591        21.7580 
  29   0.0000       0.799597        21.7581 
  30   0.0000       0.885048        24.0834 
  31   0.0000       0.885064        24.0838 
  32   0.0000       1.035807        28.1857 
  33   0.0000       1.096674        29.8420 
  34   0.0000       1.096739        29.8438 
  35   0.0000       1.590626        43.2831 
  36   0.0000       1.685396        45.8620 
  37   0.0000       1.735311        47.2202 
  38   0.0000       1.816677        49.4343 
  39   0.0000       1.816707        49.4351 
  40   0.0000       1.923447        52.3396 
  41   0.0000       1.923500        52.3411 
  42   0.0000       2.067695        56.2648 
  43   0.0000       2.271054        61.7985 
  44   0.0000       2.411045        65.6079 
  45   0.0000       2.411120        65.6099 
  46   0.0000       2.447891        66.6105 
  47   0.0000       2.447966        66.6125 
  48   0.0000       2.715017        73.8794 
  49   0.0000       2.715070        73.8808 
  50   0.0000       2.810838        76.4868 
  51   0.0000       3.096594        84.2626 
  52   0.0000       3.164423        86.1083 
  53   0.0000       3.164431        86.1086 
  54   0.0000       3.301265        89.8320 
  55   0.0000       3.301294        89.8328 
  56   0.0000       3.530084        96.0585 
  57   0.0000       3.530129        96.0597 
  58   0.0000       3.580063        97.4185 
  59   0.0000       3.590942        97.7145 
  60   0.0000       4.350496       118.3830 
  61   0.0000       4.350564       118.3849 
  62   0.0000       4.675604       127.2297 
  63   0.0000      22.201115       604.1230 

                 SPIN DOWN ORBITALS
  NO   OCC          E(Eh)            E(eV) 
   0   1.0000     -10.277633      -279.6686 
   1   1.0000      -0.763987       -20.7891 
   2   1.0000      -0.501428       -13.6445 
   3   1.0000      -0.501388       -13.6435 
   4   0.0000      -0.001087        -0.0296 
   5   0.0000       0.086150         2.3442 
   6   0.0000       0.165725         4.5096 
   7   0.0000       0.165733         4.5098 
   8   0.0000       0.201456         5.4819 
   9   0.0000       0.201465         5.4821 
  10   0.0000       0.228650         6.2219 
  11   0.0000       0.252303         6.8655 
  12   0.0000       0.260523         7.0892 
  13   0.0000       0.260531         7.0894 
  14   0.0000       0.320218         8.7136 
  15   0.0000       0.371485        10.1086 
  16   0.0000       0.373000        10.1499 
  17   0.0000       0.373013        10.1502 
  18   0.0000       0.376324        10.2403 
  19   0.0000       0.394553        10.7363 
  20   0.0000       0.394558        10.7365 
  21   0.0000       0.445245        12.1157 
  22   0.0000       0.445245        12.1157 
  23   0.0000       0.534443        14.5429 
  24   0.0000       0.541998        14.7485 
  25   0.0000       0.542003        14.7486 
  26   0.0000       0.555212        15.1081 
  27   0.0000       0.789670        21.4880 
  28   0.0000       0.808188        21.9919 
  29   0.0000       0.808196        21.9921 
  30   0.0000       0.913205        24.8496 
  31   0.0000       0.913216        24.8499 
  32   0.0000       1.058768        28.8105 
  33   0.0000       1.102773        30.0080 
  34   0.0000       1.102834        30.0096 
  35   0.0000       1.652314        44.9617 
  36   0.0000       1.685555        45.8663 
  37   0.0000       1.753560        47.7168 
  38   0.0000       1.826846        49.7110 
  39   0.0000       1.826894        49.7123 
  40   0.0000       1.938497        52.7492 
  41   0.0000       1.938506        52.7494 
  42   0.0000       2.082522        56.6683 
  43   0.0000       2.275362        61.9157 
  44   0.0000       2.417225        65.7760 
  45   0.0000       2.417301        65.7781 
  46   0.0000       2.460870        66.9637 
  47   0.0000       2.460881        66.9640 
  48   0.0000       2.728954        74.2586 
  49   0.0000       2.729027        74.2606 
  50   0.0000       2.850942        77.5781 
  51   0.0000       3.138581        85.4051 
  52   0.0000       3.220207        87.6263 
  53   0.0000       3.220223        87.6267 
  54   0.0000       3.337057        90.8059 
  55   0.0000       3.337109        90.8074 
  56   0.0000       3.566867        97.0594 
  57   0.0000       3.566912        97.0606 
  58   0.0000       3.605875        98.1208 
  59   0.0000       3.620649        98.5229 
  60   0.0000       4.371841       118.9638 
  61   0.0000       4.371916       118.9659 
  62   0.0000       4.700529       127.9079 
  63   0.0000      22.221626       604.6812 

                    ********************************
                    * MULLIKEN POPULATION ANALYSIS *
                    ********************************

--------------------------------------------
MULLIKEN ATOMIC CHARGES AND SPIN POPULATIONS
--------------------------------------------
   0 C :   -0.722169    0.896952
   1 H :    0.240569    0.034320
   2 H :    0.240799    0.034364
   3 H :    0.240802    0.034364
Sum of atomic charges         :   -0.0000000
Sum of atomic spin populations:    1.0000000

-----------------------------------------------------
MULLIKEN REDUCED ORBITAL CHARGES AND SPIN POPULATIONS
-----------------------------------------------------
CHARGE
  0 C s       :     3.422786  s :     3.422786
      pz      :     0.928723  p :     3.264387
      px      :     1.167706
      py      :     1.167958
      dz2     :     0.003253  d :     0.033396
      dxz     :     0.005539
      dyz     :     0.005540
      dx2y2   :     0.009524
      dxy     :     0.009540
      f0      :     0.000318  f :     0.001601
      f+1     :     0.000281
      f-1     :     0.000282
      f+2     :    -0.000076
      f-2     :    -0.000077
      f+3     :     0.000873
      f-3     :     0.000000
  1 H s       :     0.711677  s :     0.711677
      pz      :     0.022960  p :     0.047755
      px      :     0.021387
      py      :     0.003407
  2 H s       :     0.711516  s :     0.711516
      pz      :     0.022897  p :     0.047685
      px      :     0.007892
      py      :     0.016896
  3 H s       :     0.711514  s :     0.711514
      pz      :     0.022897  p :     0.047685
      px      :     0.007892
      py      :     0.016896

SPIN
  0 C s       :    -0.024054  s :    -0.024054
      pz      :     0.900009  p :     0.926986
      px      :     0.013494
      py      :     0.013484
      dz2     :    -0.003034  d :    -0.004774
      dxz     :    -0.001348
      dyz     :    -0.001346
      dx2y2   :     0.000477
      dxy     :     0.000476
      f0      :    -0.000190  f :    -0.001206
      f+1     :    -0.000431
      f-1     :    -0.000432
      f+2     :    -0.000012
      f-2     :    -0.000011
      f+3     :    -0.000129
      f-3     :    -0.000000
  1 H s       :     0.006120  s :     0.006120
      pz      :     0.021841  p :     0.028199
      px      :     0.003152
      py      :     0.003207
  2 H s       :     0.006226  s :     0.006226
      pz      :     0.021773  p :     0.028138
      px      :     0.003195
      py      :     0.003170
  3 H s       :     0.006226  s :     0.006226
      pz      :     0.021773  p :     0.028138
      px      :     0.003195
      py      :     0.003170


                     *******************************
                     * LOEWDIN POPULATION ANALYSIS *
                     *******************************

-------------------------------------------
LOEWDIN ATOMIC CHARGES AND SPIN POPULATIONS
-------------------------------------------
   0 C :    0.060069    0.833864
   1 H :   -0.020029    0.055397
   2 H :   -0.020020    0.055369
   3 H :   -0.020020    0.055369

----------------------------------------------------
LOEWDIN REDUCED ORBITAL CHARGES AND SPIN POPULATIONS
----------------------------------------------------
CHARGE
  0 C s       :     2.913308  s :     2.913308
      pz      :     0.784737  p :     2.904604
      px      :     1.059952
      py      :     1.059915
      dz2     :     0.010509  d :     0.112614
      dxz     :     0.009327
      dyz     :     0.009322
      dx2y2   :     0.041722
      dxy     :     0.041733
      f0      :     0.000681  f :     0.009405
      f+1     :     0.001157
      f-1     :     0.001157
      f+2     :     0.001476
      f-2     :     0.001475
      f+3     :     0.003459
      f-3     :     0.000000
  1 H s       :     0.760974  s :     0.760974
      pz      :     0.067542  p :     0.259056
      px      :     0.124476
      py      :     0.067038
  2 H s       :     0.760982  s :     0.760982
      pz      :     0.067532  p :     0.259038
      px      :     0.081386
      py      :     0.110120
  3 H s       :     0.760982  s :     0.760982
      pz      :     0.067532  p :     0.259038
      px      :     0.081386
      py      :     0.110120

SPIN
  0 C s       :     0.048584  s :     0.048584
      pz      :     0.762803  p :     0.794221
      px      :     0.015696
      py      :     0.015722
      dz2     :    -0.001488  d :    -0.007823
      dxz     :    -0.001133
      dyz     :    -0.001130
      dx2y2   :    -0.002033
      dxy     :    -0.002040
      f0      :    -0.000164  f :    -0.001117
      f+1     :    -0.000390
      f-1     :    -0.000391
      f+2     :    -0.000074
      f-2     :    -0.000073
      f+3     :    -0.000024
      f-3     :    -0.000000
  1 H s       :    -0.010222  s :    -0.010222
      pz      :     0.062873  p :     0.065619
      px      :     0.003286
      py      :    -0.000540
  2 H s       :    -0.010233  s :    -0.010233
      pz      :     0.062854  p :     0.065602
      px      :     0.000418
      py      :     0.002330
  3 H s       :    -0.010233  s :    -0.010233
      pz      :     0.062854  p :     0.065602
      px      :     0.000418
      py      :     0.002330


                      *****************************
                      * MAYER POPULATION ANALYSIS *
                      *****************************

  NA   - Mulliken gross atomic population
  ZA   - Total nuclear charge
  QA   - Mulliken gross atomic charge
  VA   - Mayer's total valence
  BVA  - Mayer's bonded valence
  FA   - Mayer's free valence

  ATOM       NA         ZA         QA         VA         BVA        FA
  0 C      6.7222     6.0000    -0.7222     3.7487     2.9098     0.8389
  1 H      0.7594     1.0000     0.2406     1.0009     0.9995     0.0014
  2 H      0.7592     1.0000     0.2408     1.0006     0.9992     0.0014
  3 H      0.7592     1.0000     0.2408     1.0006     0.9992     0.0014

  Mayer bond orders larger than 0.100000
B(  0-C ,  1-H ) :   0.9702 B(  0-C ,  2-H ) :   0.9698 B(  0-C ,  3-H ) :   0.9698 


-------
TIMINGS
-------

Total SCF time: 0 days 0 hours 0 min 17 sec 

Total time                  ....      17.631 sec
Sum of individual times     ....      15.568 sec  ( 88.3%)

Fock matrix formation       ....      12.404 sec  ( 70.4%)
  Split-RI-J                ....       1.220 sec  (  9.8% of F)
  Chain of spheres X        ....       1.528 sec  ( 12.3% of F)
  XC integration            ....       2.463 sec  ( 19.9% of F)
    Basis function eval.    ....       0.052 sec  (  2.1% of XC)
    Density eval.           ....       0.069 sec  (  2.8% of XC)
    XC-Functional eval.     ....       0.068 sec  (  2.8% of XC)
    XC-Potential eval.      ....       0.073 sec  (  3.0% of XC)
Diagonalization             ....       0.243 sec  (  1.4%)
Density matrix formation    ....       0.017 sec  (  0.1%)
Population analysis         ....       0.336 sec  (  1.9%)
Initial guess               ....       0.218 sec  (  1.2%)
Orbital Transformation      ....       0.000 sec  (  0.0%)
Orbital Orthonormalization  ....       0.000 sec  (  0.0%)
DIIS solution               ....       1.364 sec  (  7.7%)
Grid generation             ....       0.986 sec  (  5.6%)

Maximum memory used throughout the entire SCF-calculation: 58.5 MB


-------------------------------------------------------------------------------
                          DFT DISPERSION CORRECTION                            
                                                                               
                              DFTD3 V3.1  Rev 1                                
                              USING zero damping                               
-------------------------------------------------------------------------------
The omegaB97X-D3 functional is recognized. Fit by Chai et al.
Active option DFTDOPT                   ...         3   

molecular C6(AA) [au] = 106.961763 


            DFT-D V3
 parameters
 s6 scaling factor         :     1.0000 
 rs6 scaling factor        :     1.2810 
 s8 scaling factor         :     1.0000 
 rs8 scaling factor        :     1.0940 
 Damping factor alpha6     :    14.0000 
 Damping factor alpha8     :    16.0000 
 ad hoc parameters k1-k3   :    16.0000     1.3333    -4.0000 

 Edisp/kcal,au: -0.009181036833  -0.000014630912 
 E6   /kcal   :  -0.001432026 
 E8   /kcal   :  -0.007749011 
 % E8         :  84.402346404 

-------------------------   ----------------
Dispersion correction           -0.000014631
-------------------------   ----------------


-------------------------   --------------------
FINAL SINGLE POINT ENERGY       -39.835098095992
-------------------------   --------------------



           ************************************************************
           *        Program running with 18 parallel MPI-processes    *
           *              working on a common directory               *
           ************************************************************
------------------------------------------------------------------------------
                         ORCA SCF GRADIENT CALCULATION
------------------------------------------------------------------------------

 ... reading COSX grid (gridx3)
Gradient of the Kohn-Sham DFT energy:
Kohn-Sham wavefunction type      ... UKS
Hartree-Fock exchange scaling    ...    0.196
Number of operators              ...    2
Number of atoms                  ...    4
Basis set dimensions             ...   64
Integral neglect threshold       ... 2.5e-11
Integral primitive cutoff        ... 2.5e-12
SHARK Integral package           ... ON

Nuc. rep. gradient       (SHARK) ... done (  0.0 sec)
HCore & Overlap gradient (SHARK) ... done (  0.0 sec)
RI-J gradient            (SHARK) ... done (  0.2 sec)
COSX-gradient                    ... done (  0.1 sec)
Exchange-correlation gradient    ... done
Dispersion correction            ... done

------------------
CARTESIAN GRADIENT
------------------

WARNING: THERE ARE 3 CONSTRAINED CARTESIAN COORDINATES
   1   C   :   -0.000022798   -0.000000035    0.020631598
   2   H   :   -0.005132378   -0.000000005   -0.006885123
   3   H   :    0.002593609   -0.004418001   -0.006877442
   4   H   :    0.002593601    0.004417999   -0.006877449

Difference to translation invariance:
           :    0.0000320349   -0.0000000421   -0.0000084166

Difference to rotation invariance:
           :    0.0000000082   -0.0000114697   -0.0000000234

Norm of the cartesian gradient     ...    0.0254263466
RMS gradient                       ...    0.0073399540
MAX gradient                       ...    0.0206315976

-------
TIMINGS
-------

Total SCF gradient time            ...        0.827 sec

One electron gradient       ....       0.007 sec  (  0.8%)
RI-J Coulomb gradient       ....       0.167 sec  ( 20.2%)
COSX gradient               ....       0.135 sec  ( 16.4%)
XC gradient                 ....       0.068 sec  (  8.2%)

Maximum memory used throughout the entire SCFGRAD-calculation: 33.6 MB
------------------------------------------------------------------------------
                         ORCA GEOMETRY RELAXATION STEP
------------------------------------------------------------------------------

Reading the OPT-File                    .... done
Getting information on internals        .... done
Copying old internal coords+grads       .... done
Making the new internal coordinates     .... (new redundants).... done
Validating the new internal coordinates .... (new redundants).... done
Calculating the B-matrix                .... done
Calculating the G,G- and P matrices     .... done
Transforming gradient to internals      .... done
Projecting the internal gradient        .... done
Number of atoms                         ....   4
Number of internal coordinates          ....   7
Current Energy                          ....   -39.835098096 Eh
Current gradient norm                   ....     0.025426347 Eh/bohr
Maximum allowed component of the step   ....  0.300
Current trust radius                    ....  0.300
Evaluating the initial hessian          ....  (Almloef) done
Projecting the Hessian                  .... done
Forming the augmented Hessian           .... done
Diagonalizing the augmented Hessian     .... done
Last element of RFO vector              ....  0.999880323
Lowest eigenvalues of augmented Hessian:
 -0.000089454  0.373574723  0.373574723  0.373664178 1000.000000000
Length of the computed step             ....  0.015472482
The final length of the internal step   ....  0.015472482
Converting the step to cartesian space:
 Initial RMS(Int)=    0.0058480484
Transforming coordinates:
 Iter   0:  RMS(Cart)=    0.0043702210 RMS(Int)=    0.0058480484
 Iter   1:  RMS(Cart)=    0.0000000000 RMS(Int)=    0.0000000000
Imposing constraints:
 Iter   0:  RMS(Cart)=    0.0000000006 RMS(Int)=    0.0000000029
CONVERGED
done
Storing new coordinates                 .... done

                                .--------------------.
          ----------------------|Geometry convergence|-------------------------
          Item                value                   Tolerance       Converged
          ---------------------------------------------------------------------
          RMS gradient        0.0021852062            0.0001000000      NO
          MAX gradient        0.0033506499            0.0003000000      NO
          RMS step            0.0058480484            0.0020000000      NO
          MAX step            0.0089670087            0.0040000000      NO
          ........................................................
          Max(Bonds)      0.0047      Max(Angles)    0.00
          Max(Dihed)        0.00      Max(Improp)    0.00
          ---------------------------------------------------------------------

The optimization has not yet converged - more geometry cycles are needed


    ---------------------------------------------------------------------------
                         Redundant Internal Coordinates
                            (Angstroem and degrees)

        Definition                    Value    dE/dq     Step     New-Value
    ----------------------------------------------------------------------------
     1. B(H   1,C   0)                1.0800 -0.003351  0.0047    1.0847   
     2. B(H   2,C   0)                1.0800 -0.003332  0.0047    1.0847   
     3. B(H   3,C   0)                1.0800 -0.003332  0.0047    1.0847   
     4. A(H   2,C   0,H   3)          114.50 -0.007936    0.00    114.50 C 
     5. A(H   1,C   0,H   2)          114.50 -0.002596   -0.00    114.50 C 
     6. A(H   1,C   0,H   3)          114.50 -0.002596    0.00    114.50 C 
     7. I(H   1,H   3,H   2,C   0)     39.95  0.014162    0.00     39.95   
    ----------------------------------------------------------------------------

         *************************************************************
         *                GEOMETRY OPTIMIZATION CYCLE   2            *
         *************************************************************
---------------------------------
CARTESIAN COORDINATES (ANGSTROEM)
---------------------------------
  C     -0.000007    0.000000    0.000845
  H      1.053442    0.000000   -0.257838
  H     -0.526717    0.912290   -0.257836
  H     -0.526717   -0.912290   -0.257836

----------------------------
CARTESIAN COORDINATES (A.U.)
----------------------------
  NO LB      ZA    FRAG     MASS         X           Y           Z
   0 C     6.0000    0    12.011   -0.000013    0.000000    0.001598
   1 H     1.0000    0     1.008    1.990717    0.000000   -0.487243
   2 H     1.0000    0     1.008   -0.995352    1.723979   -0.487240
   3 H     1.0000    0     1.008   -0.995352   -1.723979   -0.487240

--------------------------------
INTERNAL COORDINATES (ANGSTROEM)
--------------------------------
 C      0   0   0     0.000000000000     0.00000000     0.00000000
 H      1   0   0     1.084745136696     0.00000000     0.00000000
 H      1   2   0     1.084718139457   114.49999998     0.00000000
 H      1   2   3     1.084718158477   114.49999998   135.11347405

---------------------------
INTERNAL COORDINATES (A.U.)
---------------------------
 C      0   0   0     0.000000000000     0.00000000     0.00000000
 H      1   0   0     2.049871233459     0.00000000     0.00000000
 H      1   2   0     2.049820216071   114.49999998     0.00000000
 H      1   2   3     2.049820252014   114.49999998   135.11347405



           ************************************************************
           *        Program running with 18 parallel MPI-processes    *
           *              working on a common directory               *
           ************************************************************
------------------------------------------------------------------------------
                   ___                                                        
                  /   \      - P O W E R E D   B Y -                         
                 /     \                                                     
                 |  |  |   _    _      __       _____    __    __             
                 |  |  |  | |  | |    /  \     |  _  \  |  |  /  |          
                  \  \/   | |  | |   /    \    | | | |  |  | /  /          
                 / \  \   | |__| |  /  /\  \   | |_| |  |  |/  /          
                |  |  |   |  __  | /  /__\  \  |    /   |      \           
                |  |  |   | |  | | |   __   |  |    \   |  |\   \          
                \     /   | |  | | |  |  |  |  | |\  \  |  | \   \       
                 \___/    |_|  |_| |__|  |__|  |_| \__\ |__|  \__/        
                                                                              
                      - O R C A' S   B I G   F R I E N D -                    
                                      &                                       
                       - I N T E G R A L  F E E D E R -                       
                                                                              
 v1 FN, 2020, v2 2021                                                         
------------------------------------------------------------------------------


Reading SHARK input file /beegfs/scratch/ispackman/PFAS_EPR_calcs/benchmark/JChemEd_CF3_radical/CH3_radical_114.5_degrees_IN-PROGRESS/CH3_radical_114.5_degrees.SHARKINP.tmp ... ok
----------------------
SHARK INTEGRAL PACKAGE
----------------------

Number of atoms                             ...      4
Number of basis functions                   ...     64
Number of shells                            ...     28
Maximum angular momentum                    ...      3
Integral batch strategy                     ... SHARK/LIBINT Hybrid
RI-J (if used) integral strategy            ... SPLIT-RIJ (Revised 2003 algorithm where possible)
Printlevel                                  ...      1
Contraction scheme used                     ... SEGMENTED contraction
Coulomb Range Separation                    ... NOT USED
Exchange Range Separation                   ... Long Range
   Mu parameter                             ...  0.250000
   Scaling (regular/separated)              ...  0.195728  0.804272
Finite Nucleus Model                        ... NOT USED
Auxiliary Coulomb fitting basis             ... AVAILABLE
   # of basis functions in Aux-J            ...     82
   # of shells in Aux-J                     ...     30
   Maximum angular momentum in Aux-J        ...      4
Auxiliary J/K fitting basis                 ... NOT available
Auxiliary Correlation fitting basis         ... NOT available
Auxiliary 'external' fitting basis          ... NOT available
Integral threshold                          ...     2.500000e-11
Primitive cut-off                           ...     2.500000e-12
Primitive pair pre-selection threshold      ...     2.500000e-12

Calculating pre-screening integrals         ... done (  0.0 sec) Dimension = 28
Organizing shell pair data                  ... done (  0.0 sec)
Shell pair information
Total number of shell pairs                 ...       406
Shell pairs after pre-screening             ...       406
Total number of primitive shell pairs       ...       977
Primitive shell pairs kept                  ...       944
          la=0 lb=0:    120 shell pairs
          la=1 lb=0:    135 shell pairs
          la=1 lb=1:     45 shell pairs
          la=2 lb=0:     45 shell pairs
          la=2 lb=1:     27 shell pairs
          la=2 lb=2:      6 shell pairs
          la=3 lb=0:     15 shell pairs
          la=3 lb=1:      9 shell pairs
          la=3 lb=2:      3 shell pairs
          la=3 lb=3:      1 shell pairs

Calculating one electron integrals          ... done (  0.0 sec)
Calculating RI/J V-Matrix + Cholesky decomp.... done (  0.1 sec)
Calculating Nuclear repulsion               ... done (  0.0 sec) ENN=      9.651258111913 Eh

SHARK setup successfully completed in   0.6 seconds

Maximum memory used throughout the entire GTOINT-calculation: 14.0 MB


           ************************************************************
           *        Program running with 18 parallel MPI-processes    *
           *              working on a common directory               *
           ************************************************************

Diagonalization of the overlap matrix:
Smallest eigenvalue                        ... 6.126e-05
Time for diagonalization                   ...    0.002 sec
Threshold for overlap eigenvalues          ... 1.000e-08
Number of eigenvalues below threshold      ... 0
Time for construction of square roots      ...    0.075 sec
Total time needed                          ...    0.078 sec

-------------------
DFT GRID GENERATION
-------------------

General Integration Accuracy     IntAcc      ... 4.388
Radial Grid Type                 RadialGrid  ... OptM3 with GC (2021)
Angular Grid (max. ang.)         AngularGrid ... 4 (Lebedev-302)
Angular grid pruning method      GridPruning ... 4 (adaptive)
Weight generation scheme         WeightScheme... Becke
Basis function cutoff            BFCut       ... 1.0000e-11
Integration weight cutoff        WCut        ... 1.0000e-14
Angular grids for H and He will be reduced by one unit
Partially contracted basis set               ... off
Rotationally invariant grid construction     ... off

Total number of grid points                  ...    17034
Total number of batches                      ...      268
Average number of points per batch           ...       63
Average number of grid points per atom       ...     4258
Time for grid setup =    0.148 sec

--------------------
COSX GRID GENERATION
--------------------

GRIDX 1
-------
General Integration Accuracy     IntAcc      ... 3.816
Radial Grid Type                 RadialGrid  ... OptM3 with GC (2021)
Angular Grid (max. ang.)         AngularGrid ... 1 (Lebedev-50)
Angular grid pruning method      GridPruning ... 4 (adaptive)
Weight generation scheme         WeightScheme... Becke
Basis function cutoff            BFCut       ... 1.0000e-11
Integration weight cutoff        WCut        ... 1.0000e-14
Angular grids for H and He will be reduced by one unit
Partially contracted basis set               ... on
Rotationally invariant grid construction     ... off

Total number of grid points                  ...     2150
Total number of batches                      ...       36
Average number of points per batch           ...       59
Average number of grid points per atom       ...      538
UseSFitting                                  ... on

GRIDX 2
-------
General Integration Accuracy     IntAcc      ... 4.020
Radial Grid Type                 RadialGrid  ... OptM3 with GC (2021)
Angular Grid (max. ang.)         AngularGrid ... 2 (Lebedev-110)
Angular grid pruning method      GridPruning ... 4 (adaptive)
Weight generation scheme         WeightScheme... Becke
Basis function cutoff            BFCut       ... 1.0000e-11
Integration weight cutoff        WCut        ... 1.0000e-14
Angular grids for H and He will be reduced by one unit
Partially contracted basis set               ... on
Rotationally invariant grid construction     ... off

Total number of grid points                  ...     5069
Total number of batches                      ...       82
Average number of points per batch           ...       61
Average number of grid points per atom       ...     1267
UseSFitting                                  ... on

GRIDX 3
-------
General Integration Accuracy     IntAcc      ... 4.338
Radial Grid Type                 RadialGrid  ... OptM3 with GC (2021)
Angular Grid (max. ang.)         AngularGrid ... 3 (Lebedev-194)
Angular grid pruning method      GridPruning ... 4 (adaptive)
Weight generation scheme         WeightScheme... Becke
Basis function cutoff            BFCut       ... 1.0000e-11
Integration weight cutoff        WCut        ... 1.0000e-14
Angular grids for H and He will be reduced by one unit
Partially contracted basis set               ... on
Rotationally invariant grid construction     ... off

Total number of grid points                  ...    11728
Total number of batches                      ...      185
Average number of points per batch           ...       63
Average number of grid points per atom       ...     2932
UseSFitting                                  ... on

Time for X-Grid setup             =    0.637 sec

--------------
SCF ITERATIONS
--------------
ITER       Energy         Delta-E        Max-DP      RMS-DP      [F,P]     Damp
               ***  Starting incremental Fock matrix formation  ***
  0    -39.8351086954   0.000000000000 0.00085593  0.00002128  0.0012464 0.7000
  1    -39.8351127479  -0.000004052548 0.00075526  0.00001777  0.0008527 0.7000
                               ***Turning on DIIS***
  2    -39.8351154715  -0.000002723603 0.00201256  0.00004489  0.0005488 0.0000
               *** Restarting incremental Fock matrix formation ***
                                   *** Resetting DIIS ***
  3    -39.8351215589  -0.000006087384 0.00073896  0.00001576  0.0002511 0.0000
  4    -39.8351217558  -0.000000196903 0.00006690  0.00000293  0.0001179 0.0000
  5    -39.8351218258  -0.000000070002 0.00007082  0.00000191  0.0000299 0.0000
                 **** Energy Check signals convergence ****

               *****************************************************
               *                     SUCCESS                       *
               *           SCF CONVERGED AFTER   6 CYCLES          *
               *****************************************************

Old exchange energy                            =     -2.172228678 Eh
New exchange energy                            =     -2.172235065 Eh
Exchange energy change after final integration =     -0.000006388 Eh
Total energy after final integration           =    -39.835128220 Eh
Final COS-X integration done in                =     0.132 sec
Total Energy       :          -39.83512822 Eh           -1083.96895 eV
  Last Energy change         ...   -6.4260e-09  Tolerance :   1.0000e-08
  Last MAX-Density change    ...    0.0000e+00  Tolerance :   1.0000e-07
             **** THE GBW FILE WAS UPDATED (/beegfs/scratch/ispackman/PFAS_EPR_calcs/benchmark/JChemEd_CF3_radical/CH3_radical_114.5_degrees_IN-PROGRESS/CH3_radical_114.5_degrees.gbw) ****
             **** DENSITY /beegfs/scratch/ispackman/PFAS_EPR_calcs/benchmark/JChemEd_CF3_radical/CH3_radical_114.5_degrees_IN-PROGRESS/CH3_radical_114.5_degrees.scfp WAS UPDATED ****
             **** ENERGY FILE WAS UPDATED (/beegfs/scratch/ispackman/PFAS_EPR_calcs/benchmark/JChemEd_CF3_radical/CH3_radical_114.5_degrees_IN-PROGRESS/CH3_radical_114.5_degrees.en.tmp) ****
----------------------
UHF SPIN CONTAMINATION
----------------------

Warning: in a DFT calculation there is little theoretical justification to 
         calculate <S**2> as in Hartree-Fock theory. We will do it anyways
         but you should keep in mind that the values have only limited relevance

Expectation value of <S**2>     :     0.753296
Ideal value S*(S+1) for S=0.5   :     0.750000
Deviation                       :     0.003296

             **** THE GBW FILE WAS UPDATED (/beegfs/scratch/ispackman/PFAS_EPR_calcs/benchmark/JChemEd_CF3_radical/CH3_radical_114.5_degrees_IN-PROGRESS/CH3_radical_114.5_degrees.gbw) ****
             **** DENSITY /beegfs/scratch/ispackman/PFAS_EPR_calcs/benchmark/JChemEd_CF3_radical/CH3_radical_114.5_degrees_IN-PROGRESS/CH3_radical_114.5_degrees.scfp WAS UPDATED ****
Total SCF time: 0 days 0 hours 0 min 10 sec 

Maximum memory used throughout the entire SCF-calculation: 58.5 MB


-------------------------------------------------------------------------------
                          DFT DISPERSION CORRECTION                            
                                                                               
                              DFTD3 V3.1  Rev 1                                
                              USING zero damping                               
-------------------------------------------------------------------------------
-------------------------   ----------------
Dispersion correction           -0.000015151
-------------------------   ----------------


-------------------------   --------------------
FINAL SINGLE POINT ENERGY       -39.835143370282
-------------------------   --------------------



           ************************************************************
           *        Program running with 18 parallel MPI-processes    *
           *              working on a common directory               *
           ************************************************************
------------------------------------------------------------------------------
                         ORCA SCF GRADIENT CALCULATION
------------------------------------------------------------------------------

 ... reading COSX grid (gridx3)
Gradient of the Kohn-Sham DFT energy:
Kohn-Sham wavefunction type      ... UKS
Hartree-Fock exchange scaling    ...    0.196
Number of operators              ...    2
Number of atoms                  ...    4
Basis set dimensions             ...   64
Integral neglect threshold       ... 2.5e-11
Integral primitive cutoff        ... 2.5e-12
SHARK Integral package           ... ON

Nuc. rep. gradient       (SHARK) ... done (  0.0 sec)
HCore & Overlap gradient (SHARK) ... done (  0.0 sec)
RI-J gradient            (SHARK) ... done (  0.2 sec)
COSX-gradient                    ... done (  0.1 sec)
Exchange-correlation gradient    ... done
Dispersion correction            ... done

------------------
CARTESIAN GRADIENT
------------------

WARNING: THERE ARE 3 CONSTRAINED CARTESIAN COORDINATES
   1   C   :   -0.000041981   -0.000000059    0.022534427
   2   H   :   -0.001891142    0.000000035   -0.007522035
   3   H   :    0.000982274   -0.001627844   -0.007510925
   4   H   :    0.000982251    0.001627833   -0.007510886

Difference to translation invariance:
           :    0.0000314014   -0.0000000346   -0.0000094191

Difference to rotation invariance:
           :   -0.0000000557   -0.0000132559    0.0000000428

Norm of the cartesian gradient     ...    0.0262300663
RMS gradient                       ...    0.0075719679
MAX gradient                       ...    0.0225344267

-------
TIMINGS
-------

Total SCF gradient time            ...        0.816 sec

One electron gradient       ....       0.006 sec  (  0.8%)
RI-J Coulomb gradient       ....       0.161 sec  ( 19.7%)
COSX gradient               ....       0.130 sec  ( 15.9%)
XC gradient                 ....       0.061 sec  (  7.4%)

Maximum memory used throughout the entire SCFGRAD-calculation: 33.6 MB
------------------------------------------------------------------------------
                         ORCA GEOMETRY RELAXATION STEP
------------------------------------------------------------------------------

Reading the OPT-File                    .... done
Getting information on internals        .... done
Copying old internal coords+grads       .... done
Making the new internal coordinates     .... (new redundants).... done
Validating the new internal coordinates .... (new redundants).... done
Calculating the B-matrix                .... done
Calculating the G,G- and P matrices     .... done
Transforming gradient to internals      .... done
Projecting the internal gradient        .... done
Number of atoms                         ....   4
Number of internal coordinates          ....   7
Current Energy                          ....   -39.835143370 Eh
Current gradient norm                   ....     0.026230066 Eh/bohr
Maximum allowed component of the step   ....  0.300
Current trust radius                    ....  0.300
Updating the Hessian (BFGS)             .... done
Forming the augmented Hessian           .... done
Diagonalizing the augmented Hessian     .... done
Last element of RFO vector              ....  0.999999971
Lowest eigenvalues of augmented Hessian:
 -0.000000022  0.367911534  0.373574723  0.373575318 999.999999914
Length of the computed step             ....  0.000241915
The final length of the internal step   ....  0.000241915
Converting the step to cartesian space:
 Initial RMS(Int)=    0.0000914354
Transforming coordinates:
 Iter   0:  RMS(Cart)=    0.0000683287 RMS(Int)=    0.0000914354
 Iter   1:  RMS(Cart)=    0.0000000000 RMS(Int)=    0.0000000000
Imposing constraints:
 Iter   0:  RMS(Cart)=    0.0000000004 RMS(Int)=    0.0000000023
CONVERGED
done
Storing new coordinates                 .... done

                                .--------------------.
          ----------------------|Geometry convergence|-------------------------
          Item                value                   Tolerance       Converged
          ---------------------------------------------------------------------
          Energy change      -0.0000452743            0.0000050000      NO
          RMS gradient        0.0000336401            0.0001000000      YES
          MAX gradient        0.0000516508            0.0003000000      YES
          RMS step            0.0000914354            0.0020000000      YES
          MAX step            0.0001403894            0.0040000000      YES
          ........................................................
          Max(Bonds)      0.0001      Max(Angles)    0.00
          Max(Dihed)        0.00      Max(Improp)    0.00
          ---------------------------------------------------------------------

       Everything but the energy has converged. However, the energy
       appears to be close enough to convergence to make sure that the
       final evaluation at the new geometry represents the equilibrium energy.
       Convergence will therefore be signaled now


                    ***********************HURRAY********************
                    ***        THE OPTIMIZATION HAS CONVERGED     ***
                    *************************************************


    ---------------------------------------------------------------------------
                         Redundant Internal Coordinates

                          --- Optimized Parameters ---  
                            (Angstroem and degrees)

        Definition                    OldVal   dE/dq     Step     FinalVal
    ----------------------------------------------------------------------------
     1. B(H   1,C   0)                1.0847 -0.000051  0.0001    1.0848   
     2. B(H   2,C   0)                1.0847 -0.000052  0.0001    1.0848   
     3. B(H   3,C   0)                1.0847 -0.000052  0.0001    1.0848   
     4. A(H   2,C   0,H   3)          114.50 -0.007815   -0.00    114.50 C 
     5. A(H   1,C   0,H   2)          114.50 -0.002556   -0.00    114.50 C 
     6. A(H   1,C   0,H   3)          114.50 -0.002556   -0.00    114.50 C 
     7. I(H   1,H   3,H   2,C   0)     39.95  0.013947    0.00     39.95   
    ----------------------------------------------------------------------------
                 *******************************************************
                 *** FINAL ENERGY EVALUATION AT THE STATIONARY POINT ***
                 ***               (AFTER    2 CYCLES)               ***
                 *******************************************************
---------------------------------
CARTESIAN COORDINATES (ANGSTROEM)
---------------------------------
  C     -0.000007    0.000000    0.000859
  H      1.053513    0.000000   -0.257842
  H     -0.526753    0.912353   -0.257841
  H     -0.526753   -0.912353   -0.257841

----------------------------
CARTESIAN COORDINATES (A.U.)
----------------------------
  NO LB      ZA    FRAG     MASS         X           Y           Z
   0 C     6.0000    0    12.011   -0.000013    0.000000    0.001623
   1 H     1.0000    0     1.008    1.990851    0.000000   -0.487251
   2 H     1.0000    0     1.008   -0.995419    1.724097   -0.487248
   3 H     1.0000    0     1.008   -0.995419   -1.724097   -0.487248

--------------------------------
INTERNAL COORDINATES (ANGSTROEM)
--------------------------------
 C      0   0   0     0.000000000000     0.00000000     0.00000000
 H      1   0   0     1.084818279451     0.00000000     0.00000000
 H      1   2   0     1.084792430332   114.49999994     0.00000000
 H      1   2   3     1.084792449153   114.49999994   135.11347394

---------------------------
INTERNAL COORDINATES (A.U.)
---------------------------
 C      0   0   0     0.000000000000     0.00000000     0.00000000
 H      1   0   0     2.050009453234     0.00000000     0.00000000
 H      1   2   0     2.049960605479   114.49999994     0.00000000
 H      1   2   3     2.049960641044   114.49999994   135.11347394

---------------------
BASIS SET INFORMATION
---------------------
There are 2 groups of distinct atoms

 Group   1 Type C   : 12s6p3d1f contracted to 6s3p3d1f pattern {621111/411/111/1}
 Group   2 Type H   : 5s2p contracted to 3s2p pattern {311/11}

Atom   0C    basis set group =>   1
Atom   1H    basis set group =>   2
Atom   2H    basis set group =>   2
Atom   3H    basis set group =>   2
---------------------------------
AUXILIARY/J BASIS SET INFORMATION
---------------------------------
There are 2 groups of distinct atoms

 Group   1 Type C   : 12s5p4d2f1g contracted to 6s4p3d1f1g pattern {711111/2111/211/2/1}
 Group   2 Type H   : 5s2p1d contracted to 3s1p1d pattern {311/2/1}

Atom   0C    basis set group =>   1
Atom   1H    basis set group =>   2
[...]

  NA   - Mulliken gross atomic population
  ZA   - Total nuclear charge
  QA   - Mulliken gross atomic charge
  VA   - Mayer's total valence
  BVA  - Mayer's bonded valence
  FA   - Mayer's free valence

  ATOM       NA         ZA         QA         VA         BVA        FA
  0 C      6.7187     6.0000    -0.7187     3.7503     2.9101     0.8401
  1 H      0.7606     1.0000     0.2394     1.0019     1.0005     0.0014
  2 H      0.7603     1.0000     0.2397     1.0017     1.0003     0.0014
  3 H      0.7603     1.0000     0.2397     1.0017     1.0003     0.0014

  Mayer bond orders larger than 0.100000
B(  0-C ,  1-H ) :   0.9703 B(  0-C ,  2-H ) :   0.9699 B(  0-C ,  3-H ) :   0.9699 


-------
TIMINGS
-------

Total SCF time: 0 days 0 hours 0 min 10 sec 

Total time                  ....      10.395 sec
Sum of individual times     ....       8.548 sec  ( 82.2%)

Fock matrix formation       ....       6.652 sec  ( 64.0%)
  Split-RI-J                ....       0.797 sec  ( 12.0% of F)
  Chain of spheres X        ....       0.909 sec  ( 13.7% of F)
  XC integration            ....       1.293 sec  ( 19.4% of F)
    Basis function eval.    ....       0.026 sec  (  2.0% of XC)
    Density eval.           ....       0.036 sec  (  2.8% of XC)
    XC-Functional eval.     ....       0.041 sec  (  3.2% of XC)
    XC-Potential eval.      ....       0.033 sec  (  2.6% of XC)
Diagonalization             ....       0.138 sec  (  1.3%)
Density matrix formation    ....       0.018 sec  (  0.2%)
Population analysis         ....       0.472 sec  (  4.5%)
Initial guess               ....       0.011 sec  (  0.1%)
Orbital Transformation      ....       0.000 sec  (  0.0%)
Orbital Orthonormalization  ....       0.002 sec  (  0.0%)
DIIS solution               ....       0.439 sec  (  4.2%)
Grid generation             ....       0.819 sec  (  7.9%)

Maximum memory used throughout the entire SCF-calculation: 58.5 MB


-------------------------------------------------------------------------------
                          DFT DISPERSION CORRECTION                            
                                                                               
                              DFTD3 V3.1  Rev 1                                
                              USING zero damping                               
-------------------------------------------------------------------------------
The omegaB97X-D3 functional is recognized. Fit by Chai et al.
Active option DFTDOPT                   ...         3   

molecular C6(AA) [au] = 106.972671 


            DFT-D V3
 parameters
 s6 scaling factor         :     1.0000 
 rs6 scaling factor        :     1.2810 
 s8 scaling factor         :     1.0000 
 rs8 scaling factor        :     1.0940 
 Damping factor alpha6     :    14.0000 
 Damping factor alpha8     :    16.0000 
 ad hoc parameters k1-k3   :    16.0000     1.3333    -4.0000 

 Edisp/kcal,au: -0.009512266974  -0.000015158761 
 E6   /kcal   :  -0.001483850 
 E8   /kcal   :  -0.008028417 
 % E8         :  84.400668544 

-------------------------   ----------------
Dispersion correction           -0.000015159
-------------------------   ----------------


-------------------------   --------------------
FINAL SINGLE POINT ENERGY       -39.835143382982
-------------------------   --------------------

                                *** OPTIMIZATION RUN DONE ***

                            ***************************************
                            *     ORCA property calculations      *
                            ***************************************

                                    ---------------------
                                    Active property flags
                                    ---------------------
   (+) Dipole Moment


------------------------------------------------------------------------------
                       ORCA ELECTRIC PROPERTIES CALCULATION
------------------------------------------------------------------------------

Dipole Moment Calculation                       ... on
Quadrupole Moment Calculation                   ... off
Polarizability Calculation                      ... off
GBWName                                         ... /beegfs/scratch/ispackman/PFAS_EPR_calcs/benchmark/JChemEd_CF3_radical/CH3_radical_114.5_degrees_IN-PROGRESS/CH3_radical_114.5_degrees.gbw
Electron density                                ... /beegfs/scratch/ispackman/PFAS_EPR_calcs/benchmark/JChemEd_CF3_radical/CH3_radical_114.5_degrees_IN-PROGRESS/CH3_radical_114.5_degrees.scfp
The origin for moment calculation is the CENTER OF MASS  = (-0.000009,  0.000000 -0.096704)

-------------
DIPOLE MOMENT
-------------
                                X             Y             Z
Electronic contribution:      0.00013      -0.00000       0.38729
Nuclear contribution   :      0.00002      -0.00000      -0.58167
                        -----------------------------------------
Total Dipole Moment    :      0.00015      -0.00000      -0.19438
                        -----------------------------------------
Magnitude (a.u.)       :      0.19439
Magnitude (Debye)      :      0.49409



--------------------
Rotational spectrum 
--------------------
 
Rotational constants in cm-1:     9.162904     9.162639     5.022777 
Rotational constants in MHz : 274696.957009 274688.999308 150579.066761 

 Dipole components along the rotational axes: 
x,y,z [a.u.] :    -0.000147    -0.000000    -0.194385 
x,y,z [Debye]:    -0.000375    -0.000000    -0.494087 

 


           ************************************************************
           *        Program running with 18 parallel MPI-processes    *
           *              working on a common directory               *
           ************************************************************

-------------------------------------------------------------------------------
                               ORCA SCF HESSIAN
-------------------------------------------------------------------------------

                   --------- SHARK INITIALIZATION DONE ---------

Hessian of the Kohn-Sham DFT energy:
Kohn-Sham wavefunction type                      ... UKS
Hartree-Fock exchange scaling                    ...    0.196
Number of operators                              ...    2
Number of atoms                                  ...    4
Basis set dimensions                             ...   64
Integral neglect threshold                       ... 2.5e-11
Integral primitive cutoff                        ... 2.5e-12

Setting up DFT Hessian calculations              ... 

HESS GRID
---------

General Integration Accuracy     IntAcc      ... 4.629
Radial Grid Type                 RadialGrid  ... OptM3 with GC (2021)
Angular Grid (max. ang.)         AngularGrid ... 5 (Lebedev-434)
Angular grid pruning method      GridPruning ... 4 (adaptive)
Weight generation scheme         WeightScheme... Becke
Basis function cutoff            BFCut       ... 1.0000e-11
Integration weight cutoff        WCut        ... 1.0000e-14
Angular grids for H and He will be reduced by one unit
Partially contracted basis set               ... off
Rotationally invariant grid construction     ... off

Total number of grid points                  ...    27255
Total number of batches                      ...      427
Average number of points per batch           ...       63
Average number of grid points per atom       ...     6814

Building densities                               ... done   (      0.0 sec)
Calculating rho(r) on the grid                   ... done   (      0.1 sec)
Building xc-kernel on the grid                   ... done   (      0.1 sec)
                                                     done   (      0.4 sec)

Nuclear repulsion Hessian  (SHARK)               ... done   (      0.0 sec)

----------------------------------------------
Forming right-hand sides of CP-SCF equations     ...
----------------------------------------------
One electron integral derivatives  (SHARK)       ... done   (      0.0 sec)
Transforming the overlap derivative matrices     ... done   (      0.0 sec)
Making the Q(x) pseudodensities                  ... done   (      0.0 sec)
Adding the E*S(x)*S(y) terms to the Hessian      ... done   (      0.0 sec)
Calculating energy weighted overlap derivatives  ... done   (      0.1 sec)
Two electron integral derivatives (SHARK-RI)     ... done   (      0.7 sec)
Exchange-correlation integral derivatives        ... done   (      0.4 sec)
tr(F(y)Q(x)) contribution to the Hessian         ... done   (      0.0 sec)
Response fock operator R(S(x)) (SHARK-RIJCOSX)   ... done   (      0.7 sec)
XC Response fock operator R(S(x))                ... done   (      0.1 sec)
tr(F(y)S(x)) contribution to the Hessian         ... done   (      0.0 sec)
Transforming and finalizing RHSs                 ... done   (      0.0 sec)

----------------------------------------------
Solving the CP-SCF equations (RIJCOSX)           ...
----------------------------------------------
     CP-SCF ITERATION   0:   8.4086e-02 (   0.4 sec   0/ 12 done)
     CP-SCF ITERATION   1:   2.6492e-02 (   0.4 sec   0/ 12 done)
     CP-SCF ITERATION   2:   6.1218e-03 (   0.4 sec   0/ 12 done)
     CP-SCF ITERATION   3:   1.7552e-03 (   0.4 sec   0/ 12 done)
     CP-SCF ITERATION   4:   3.7817e-04 (   0.4 sec   1/ 12 done)
     CP-SCF ITERATION   5:   7.9202e-05 (   0.4 sec  12/ 12 done)
                    *** THE CP-SCF HAS CONVERGED ***

                                                 ... done   (      2.8 sec)
Forming perturbed density Hessian contributions  ... done   (      0.0 sec)
2nd integral derivative contribs (SHARK-RI)      ... done   (      0.9 sec)
Exchange-correlation Hessian                     ... done   (      0.3 sec)
Dispersion correction in the Hessian             ... done   (      0.1 sec)
Dipole derivatives                               ... (center of mass: -0.000009,  0.000000 -0.096704)done   (      0.2 sec)

Total SCF Hessian time: 0 days 0 hours 0 min 7 sec 

Writing the Hessian file to the disk             ... done


Maximum memory used throughout the entire SCFHESS-calculation: 109.4 MB

-----------------------
VIBRATIONAL FREQUENCIES
-----------------------

Scaling factor for frequencies =  1.000000000  (already applied!)

   0:         0.00 cm**-1
   1:         0.00 cm**-1
   2:         0.00 cm**-1
   3:         0.00 cm**-1
   4:         0.00 cm**-1
   5:         0.00 cm**-1
   6:       966.00 cm**-1
   7:      1418.33 cm**-1
   8:      1425.27 cm**-1
   9:      3101.05 cm**-1
  10:      3247.13 cm**-1
  11:      3247.75 cm**-1


------------
NORMAL MODES
------------

These modes are the Cartesian displacements weighted by the diagonal matrix
M(i,i)=1/sqrt(m[i]) where m[i] is the mass of the displaced atom
Thus, these vectors are normalized but *not* orthogonal

                  0          1          2          3          4          5    
      0       0.000000   0.000000   0.000000   0.000000   0.000000   0.000000
      1       0.000000   0.000000   0.000000   0.000000   0.000000   0.000000
      2       0.000000   0.000000   0.000000   0.000000   0.000000   0.000000
      3       0.000000   0.000000   0.000000   0.000000   0.000000   0.000000
      4       0.000000   0.000000   0.000000   0.000000   0.000000   0.000000
      5       0.000000   0.000000   0.000000   0.000000   0.000000   0.000000
      6       0.000000   0.000000   0.000000   0.000000   0.000000   0.000000
      7       0.000000   0.000000   0.000000   0.000000   0.000000   0.000000
      8       0.000000   0.000000   0.000000   0.000000   0.000000   0.000000
      9       0.000000   0.000000   0.000000   0.000000   0.000000   0.000000
     10       0.000000   0.000000   0.000000   0.000000   0.000000   0.000000
     11       0.000000   0.000000   0.000000   0.000000   0.000000   0.000000
                  6          7          8          9         10         11    
      0      -0.000839  -0.086167  -0.000002   0.000163  -0.096968  -0.000033
      1      -0.000000   0.000002  -0.086240  -0.000000  -0.000033   0.096903
      2      -0.139793   0.001173   0.000000  -0.027902  -0.000014  -0.000000
      3       0.135318  -0.105399  -0.000002  -0.568008   0.788790   0.000268
      4       0.000000  -0.000015   0.789041  -0.000000  -0.000007   0.020323
      5       0.553596  -0.172741  -0.000003   0.111143  -0.189097  -0.000064
      6      -0.062659   0.566064   0.386706   0.283031   0.183203   0.350987
      7       0.121258   0.386099   0.119292  -0.489656  -0.351599  -0.587617
      8       0.556066   0.079388  -0.145690   0.110667   0.094576   0.163737
      9      -0.062660   0.566078  -0.386685   0.283032   0.183443  -0.350861
     10      -0.121258  -0.386103   0.119278   0.489658   0.352000  -0.587375
     11       0.556066   0.079382   0.145692   0.110667   0.094688  -0.163672


-----------
IR SPECTRUM
-----------

 Mode   freq       eps      Int      T**2         TX        TY        TZ
       cm**-1   L/(mol*cm) km/mol    a.u.
----------------------------------------------------------------------------
  6:    966.00   0.007360   37.19  0.002378  (-0.000100  0.000000  0.048760)
  7:   1418.33   0.000582    2.94  0.000128  ( 0.011306 -0.000000 -0.000392)
  8:   1425.27   0.000575    2.91  0.000126  ( 0.000000  0.011225 -0.000000)
  9:   3101.05   0.000010    0.05  0.000001  ( 0.000074 -0.000000 -0.000989)
 10:   3247.13   0.002460   12.43  0.000236  (-0.015377 -0.000005 -0.000010)
 11:   3247.75   0.002461   12.44  0.000236  (-0.000005  0.015377 -0.000000)

* The epsilon (eps) is given for a Dirac delta lineshape.
** The dipole moment derivative (T) already includes vibrational overlap.

The first frequency considered to be a vibration is 6
The total number of vibrations considered is 6


--------------------------
THERMOCHEMISTRY AT 298.15K
--------------------------

Temperature         ... 298.15 K
Pressure            ... 1.00 atm
Total Mass          ... 15.03 AMU

Throughout the following assumptions are being made:
  (1) The electronic state is orbitally nondegenerate
      but the spin degeneracy is treated
  (2) There are no thermally accessible electronically excited states
  (3) Hindered rotations indicated by low frequency modes are not
      treated as such but are treated as vibrations and this may
      cause some error
  (4) All equations used are the standard statistical mechanics
      equations for an ideal gas
  (5) All vibrations are strictly harmonic

freq.     966.00  E(vib)   ...       0.03 
freq.    1418.33  E(vib)   ...       0.00 
freq.    1425.27  E(vib)   ...       0.00 
freq.    3101.05  E(vib)   ...       0.00 
freq.    3247.13  E(vib)   ...       0.00 
freq.    3247.75  E(vib)   ...       0.00 

------------
INNER ENERGY
------------

The inner energy is: U= E(el) + E(ZPE) + E(vib) + E(rot) + E(trans)
    E(el)   - is the total energy from the electronic structure calculation
              = E(kin-el) + E(nuc-el) + E(el-el) + E(nuc-nuc)
    E(ZPE)  - the the zero temperature vibrational energy from the frequency calculation
    E(vib)  - the the finite temperature correction to E(ZPE) due to population
              of excited vibrational states
    E(rot)  - is the rotational thermal energy
    E(trans)- is the translational thermal energy

Summary of contributions to the inner energy U:
Electronic energy                ...    -39.83514338 Eh
Zero point energy                ...      0.03054004 Eh      19.16 kcal/mol
Thermal vibrational correction   ...      0.00005560 Eh       0.03 kcal/mol
Thermal rotational correction    ...      0.00141627 Eh       0.89 kcal/mol
Thermal translational correction ...      0.00141627 Eh       0.89 kcal/mol
-----------------------------------------------------------------------
Total thermal energy                    -39.80171519 Eh


Summary of corrections to the electronic energy:
(perhaps to be used in another calculation)
Total thermal correction                  0.00288815 Eh       1.81 kcal/mol
Non-thermal (ZPE) correction              0.03054004 Eh      19.16 kcal/mol
-----------------------------------------------------------------------
Total correction                          0.03342819 Eh      20.98 kcal/mol


--------
ENTHALPY
--------

The enthalpy is H = U + kB*T
                kB is Boltzmann's constant
Total free energy                 ...    -39.80171519 Eh 
Thermal Enthalpy correction       ...      0.00094421 Eh       0.59 kcal/mol
-----------------------------------------------------------------------
Total Enthalpy                    ...    -39.80077099 Eh


Note: Rotational entropy computed according to Herzberg 
Infrared and Raman Spectra, Chapter V,1, Van Nostrand Reinhold, 1945 
Point Group:  C3v, Symmetry Number:   3  
Rotational constants in cm-1:     9.162904     9.162639     5.022777 

Vibrational entropy computed according to the QRRHO of S. Grimme
Chem.Eur.J. 2012 18 9955


-------
ENTROPY
-------

The entropy contributions are T*S = T*(S(el)+S(vib)+S(rot)+S(trans))
     S(el)   - electronic entropy
     S(vib)  - vibrational entropy
     S(rot)  - rotational entropy
     S(trans)- translational entropy
The entropies will be listed as multiplied by the temperature to get
units of energy

Electronic entropy                ...      0.00065446 Eh      0.41 kcal/mol
Vibrational entropy               ...      0.00006658 Eh      0.04 kcal/mol
Rotational entropy                ...      0.00562007 Eh      3.53 kcal/mol
Translational entropy             ...      0.01618771 Eh     10.16 kcal/mol
-----------------------------------------------------------------------
Final entropy term                ...      0.02252882 Eh     14.14 kcal/mol

In case the symmetry of your molecule has not been determined correctly
or in case you have a reason to use a different symmetry number we print 
out the resulting rotational entropy values for sn=1,12 :
 --------------------------------------------------------
|  sn= 1 | S(rot)=       0.00665736 Eh      4.18 kcal/mol|
|  sn= 2 | S(rot)=       0.00600291 Eh      3.77 kcal/mol|
|  sn= 3 | S(rot)=       0.00562007 Eh      3.53 kcal/mol|
|  sn= 4 | S(rot)=       0.00534845 Eh      3.36 kcal/mol|
|  sn= 5 | S(rot)=       0.00513776 Eh      3.22 kcal/mol|
|  sn= 6 | S(rot)=       0.00496562 Eh      3.12 kcal/mol|
|  sn= 7 | S(rot)=       0.00482007 Eh      3.02 kcal/mol|
|  sn= 8 | S(rot)=       0.00469399 Eh      2.95 kcal/mol|
|  sn= 9 | S(rot)=       0.00458279 Eh      2.88 kcal/mol|
|  sn=10 | S(rot)=       0.00448331 Eh      2.81 kcal/mol|
|  sn=11 | S(rot)=       0.00439332 Eh      2.76 kcal/mol|
|  sn=12 | S(rot)=       0.00431116 Eh      2.71 kcal/mol|
 --------------------------------------------------------


-------------------
GIBBS FREE ENERGY
-------------------

The Gibbs free energy is G = H - T*S

Total enthalpy                    ...    -39.80077099 Eh 
Total entropy correction          ...     -0.02252882 Eh    -14.14 kcal/mol
-----------------------------------------------------------------------
Final Gibbs free energy         ...    -39.82329980 Eh

For completeness - the Gibbs free energy minus the electronic energy
G-E(el)                           ...      0.01184358 Eh      7.43 kcal/mol


Timings for individual modules:

Sum of individual times         ...       72.205 sec (=   1.203 min)
GTO integral calculation        ...        9.121 sec (=   0.152 min)  12.6 %
SCF iterations                  ...       46.230 sec (=   0.771 min)  64.0 %
SCF Gradient evaluation         ...        6.696 sec (=   0.112 min)   9.3 %
Geometry relaxation             ...        0.173 sec (=   0.003 min)   0.2 %
Analytical frequency calculation...        9.984 sec (=   0.166 min)  13.8 %
                             ****ORCA TERMINATED NORMALLY****
TOTAL RUN TIME: 0 days 0 hours 1 minutes 22 seconds 5 msec

slurmID:    32260120
totalRuntime[s]:    82.043671406
