
                                 *****************
                                 * O   R   C   A *
                                 *****************

                                            #,                                       
                                            ###                                      
                                            ####                                     
                                            #####                                    
                                            ######                                   
                                           ########,                                 
                                     ,,################,,,,,                         
                               ,,#################################,,                 
                          ,,##########################################,,             
                       ,#########################################, ''#####,          
                    ,#############################################,,   '####,        
                  ,##################################################,,,,####,       
                ,###########''''           ''''###############################       
              ,#####''   ,,,,##########,,,,          '''####'''          '####       
            ,##' ,,,,###########################,,,                        '##       
           ' ,,###''''                  '''############,,,                           
         ,,##''                                '''############,,,,        ,,,,,,###''
      ,#''                                            '''#######################'''  
     '                                                          ''''####''''         
             ,#######,   #######,   ,#######,      ##                                
            ,#'     '#,  ##    ##  ,#'     '#,    #''#        ######   ,####,        
            ##       ##  ##   ,#'  ##            #'  '#       #        #'  '#        
            ##       ##  #######   ##           ,######,      #####,   #    #        
            '#,     ,#'  ##    ##  '#,     ,#' ,#      #,         ##   #,  ,#        
             '#######'   ##     ##  '#######'  #'      '#     #####' # '####'        



                  #######################################################
                  #                        -***-                        #
                  #          Department of theory and spectroscopy      #
                  #    Directorship and core code : Frank Neese         #
                  #        Max Planck Institute fuer Kohlenforschung    #
                  #                Kaiser Wilhelm Platz 1               #
                  #                 D-45470 Muelheim/Ruhr               #
                  #                      Germany                        #
                  #                                                     #
                  #                  All rights reserved                #
                  #                        -***-                        #
                  #######################################################


                         Program Version 5.0.4 -  RELEASE  -


 With contributions from (in alphabetic order):
   Daniel Aravena         : Magnetic Suceptibility
   Michael Atanasov       : Ab Initio Ligand Field Theory (pilot matlab implementation)
   Alexander A. Auer      : GIAO ZORA, VPT2 properties, NMR spectrum
   Ute Becker             : Parallelization
   Giovanni Bistoni       : ED, misc. LED, open-shell LED, HFLD
   Martin Brehm           : Molecular dynamics
   Dmytro Bykov           : SCF Hessian
   Vijay G. Chilkuri      : MRCI spin determinant printing, contributions to CSF-ICE
   Dipayan Datta          : RHF DLPNO-CCSD density
   Achintya Kumar Dutta   : EOM-CC, STEOM-CC
   Dmitry Ganyushin       : Spin-Orbit,Spin-Spin,Magnetic field MRCI
   Miquel Garcia          : C-PCM and meta-GGA Hessian, CC/C-PCM, Gaussian charge scheme
   Yang Guo               : DLPNO-NEVPT2, F12-NEVPT2, CIM, IAO-localization
   Andreas Hansen         : Spin unrestricted coupled pair/coupled cluster methods
   Benjamin Helmich-Paris : MC-RPA, TRAH-SCF, COSX integrals
   Lee Huntington         : MR-EOM, pCC
   Robert Izsak           : Overlap fitted RIJCOSX, COSX-SCS-MP3, EOM
   Marcus Kettner         : VPT2
   Christian Kollmar      : KDIIS, OOCD, Brueckner-CCSD(T), CCSD density, CASPT2, CASPT2-K
   Simone Kossmann        : Meta GGA functionals, TD-DFT gradient, OOMP2, MP2 Hessian
   Martin Krupicka        : Initial AUTO-CI
   Lucas Lang             : DCDCAS
   Marvin Lechner         : AUTO-CI (C++ implementation), FIC-MRCC
   Dagmar Lenk            : GEPOL surface, SMD
   Dimitrios Liakos       : Extrapolation schemes; Compound Job, initial MDCI parallelization
   Dimitrios Manganas     : Further ROCIS development; embedding schemes
   Dimitrios Pantazis     : SARC Basis sets
   Anastasios Papadopoulos: AUTO-CI, single reference methods and gradients
   Taras Petrenko         : DFT Hessian,TD-DFT gradient, ASA, ECA, R-Raman, ABS, FL, XAS/XES, NRVS
   Peter Pinski           : DLPNO-MP2, DLPNO-MP2 Gradient
   Christoph Reimann      : Effective Core Potentials
   Marius Retegan         : Local ZFS, SOC
   Christoph Riplinger    : Optimizer, TS searches, QM/MM, DLPNO-CCSD(T), (RO)-DLPNO pert. Triples
   Tobias Risthaus        : Range-separated hybrids, TD-DFT gradient, RPA, STAB
   Michael Roemelt        : Original ROCIS implementation
   Masaaki Saitow         : Open-shell DLPNO-CCSD energy and density
   Barbara Sandhoefer     : DKH picture change effects
   Avijit Sen             : IP-ROCIS
   Kantharuban Sivalingam : CASSCF convergence, NEVPT2, FIC-MRCI
   Bernardo de Souza      : ESD, SOC TD-DFT
   Georgi Stoychev        : AutoAux, RI-MP2 NMR, DLPNO-MP2 response
   Willem Van den Heuvel  : Paramagnetic NMR
   Boris Wezisla          : Elementary symmetry handling
   Frank Wennmohs         : Technical directorship


 We gratefully acknowledge several colleagues who have allowed us to
 interface, adapt or use parts of their codes:
   Stefan Grimme, W. Hujo, H. Kruse, P. Pracht,  : VdW corrections, initial TS optimization,
                  C. Bannwarth, S. Ehlert          DFT functionals, gCP, sTDA/sTD-DF
   Ed Valeev, F. Pavosevic, A. Kumar             : LibInt (2-el integral package), F12 methods
   Garnet Chan, S. Sharma, J. Yang, R. Olivares  : DMRG
   Ulf Ekstrom                                   : XCFun DFT Library
   Mihaly Kallay                                 : mrcc  (arbitrary order and MRCC methods)
   Jiri Pittner, Ondrej Demel                    : Mk-CCSD
   Frank Weinhold                                : gennbo (NPA and NBO analysis)
   Christopher J. Cramer and Donald G. Truhlar   : smd solvation model
   Lars Goerigk                                  : TD-DFT with DH, B97 family of functionals
   V. Asgeirsson, H. Jonsson                     : NEB implementation
   FAccTs GmbH                                   : IRC, NEB, NEB-TS, DLPNO-Multilevel, CI-OPT
                                                   MM, QMMM, 2- and 3-layer-ONIOM, Crystal-QMMM,
                                                   LR-CPCM, SF, NACMEs, symmetry and pop. for TD-DFT,
                                                   nearIR, NL-DFT gradient (VV10), updates on ESD,
                                                   ML-optimized integration grids
   S Lehtola, MJT Oliveira, MAL Marques          : LibXC Library
   Liviu Ungur et al                             : ANISO software


 Your calculation uses the libint2 library for the computation of 2-el integrals
 For citations please refer to: http://libint.valeyev.net

 Your ORCA version has been built with support for libXC version: 5.1.0
 For citations please refer to: https://tddft.org/programs/libxc/

 This ORCA versions uses:
   CBLAS   interface :  Fast vector & matrix operations
   LAPACKE interface :  Fast linear algebra routines
   SCALAPACK package :  Parallel linear algebra routines
   Shared memory     :  Shared parallel matrices
   BLAS/LAPACK       :  OpenBLAS 0.3.15  USE64BITINT DYNAMIC_ARCH NO_AFFINITY SkylakeX SINGLE_THREADED
        Core in use  :  SkylakeX
   Copyright (c) 2011-2014, The OpenBLAS Project


Your calculation utilizes the atom-pairwise dispersion correction
with the zero-damping scheme (D30)
Cite in your paper:
S.Grimme, J.Antony, S.Ehrlich and H.Krieg, J.Chem.Phys., 132, (2010), 154104 
   

XCFun DFT library Copyright 2009-2010 Ulf Ekstrom and contributors.
See http://admol.org/xcfun for more information.
This is free software; see the source code for copying conditions.
There is ABSOLUTELY NO WARRANTY; not even for MERCHANTABILITY or FITNESS FOR A PARTICULAR PURPOSE.
For details see the documentation.
Scientific users of this library should cite U. Ekstrom, L. Visscher, R. Bast, A. J. Thorvaldsen and K. Ruud;
J.Chem.Theor.Comp. 2010, DOI: 10.1021/ct100117s
XCFun Version 0.99 

================================================================================

----- Orbital basis set information -----
Your calculation utilizes the basis: def2-TZVPD
   F. Weigend and R. Ahlrichs, Phys. Chem. Chem. Phys. 7, 3297 (2005).
   D. Rappoport and F. Furche, J. Chem. Phys. 133 134105 (2010).

----- AuxJ basis set information -----
Your calculation utilizes the auxiliary basis: def2/J
   F. Weigend, Phys. Chem. Chem. Phys. 8, 1057 (2006).

================================================================================
                                        WARNINGS
                       Please study these warnings very carefully!
================================================================================


WARNING: Geometry Optimization
  ===> : Switching off AutoStart
         For restart on a previous wavefunction, please use MOREAD

INFO   : the flag for use of the SHARK integral package has been found!

================================================================================
                                       INPUT FILE
================================================================================
NAME = /beegfs/scratch/ispackman/PFAS_EPR_calcs/benchmark/JChemEd_CF3_radical/CH3_radical_104.5_degrees_IN-PROGRESS/CH3_radical_104.5_degrees.inp
|  1> ! UKS TightSCF wB97x-D3 def2-TZVPD xyzfile opt freq
|  2> 
|  3> # CH3 radical 104.5 degrees fixed
|  4> 
|  5> %maxcore 1000
|  6> %pal
|  7> nprocs 18
|  8> end
|  9> 
| 10> %geom Constraints
| 11>         { A * 0 * C }
| 12>     end
| 13> end
| 14> * xyz 0 2
| 15> C 0.00 0.00 0.00
| 16> H 0.9860504506 0.0000000000 -0.4405729325
| 17> H -0.4930252253 0.8539447396 -0.4405729325
| 18> H -0.4930252253 -0.8539447396 -0.4405729325
| 19> **                         ****END OF INPUT****
================================================================================

                       *****************************
                       * Geometry Optimization Run *
                       *****************************

Geometry optimization settings:
Update method            Update   .... BFGS
Choice of coordinates    CoordSys .... Z-matrix Internals
Initial Hessian          InHess   .... Almoef's Model

Convergence Tolerances:
Energy Change            TolE     ....  5.0000e-06 Eh
Max. Gradient            TolMAXG  ....  3.0000e-04 Eh/bohr
RMS Gradient             TolRMSG  ....  1.0000e-04 Eh/bohr
Max. Displacement        TolMAXD  ....  4.0000e-03 bohr
RMS Displacement         TolRMSD  ....  2.0000e-03 bohr
Strict Convergence                ....  False
------------------------------------------------------------------------------
                        ORCA OPTIMIZATION COORDINATE SETUP
------------------------------------------------------------------------------

The optimization will be done in new redundant internal coordinates
Making redundant internal coordinates   ...  (new redundants) done
Evaluating the initial hessian          ...  (Almloef) done
Evaluating the coordinates              ...  done
Calculating the B-matrix                .... done
Calculating the G-matrix                .... done
Diagonalizing the G-matrix              .... done
Imposing constraints:
 Iter   0:  RMS(Cart)=    0.0000000000 RMS(Int)=    0.0000000000
CONVERGED
Will constrain atom 0 coordinate 1 
Will constrain atom 0 coordinate 2 
Will constrain atom 1 coordinate 2 
The first mode is                       ....    1
The number of degrees of freedom        ....    6
Storing new coordinates                 .... done

    -----------------------------------------------------------------
                    Redundant Internal Coordinates


    -----------------------------------------------------------------
         Definition                    Initial Value    Approx d2E/dq
    -----------------------------------------------------------------
      1. B(H   1,C   0)                  1.0800         0.373575   
      2. B(H   2,C   0)                  1.0800         0.373575   
      3. B(H   3,C   0)                  1.0800         0.373575   
      4. A(H   2,C   0,H   3)          104.5000         0.294224 C 
      5. A(H   1,C   0,H   2)          104.5000         0.294224 C 
      6. A(H   1,C   0,H   3)          104.5000         0.294224 C 
      7. I(H   1,H   3,H   2,C   0)     65.8597         0.003074   
    -----------------------------------------------------------------

Number of atoms                         .... 4
Number of degrees of freedom            .... 7

         *************************************************************
         *                GEOMETRY OPTIMIZATION CYCLE   1            *
         *************************************************************
---------------------------------
CARTESIAN COORDINATES (ANGSTROEM)
---------------------------------
  C      0.000000    0.000000    0.000000
  H      0.986050    0.000000   -0.440573
  H     -0.493025    0.853945   -0.440573
  H     -0.493025   -0.853945   -0.440573

----------------------------
CARTESIAN COORDINATES (A.U.)
----------------------------
  NO LB      ZA    FRAG     MASS         X           Y           Z
   0 C     6.0000    0    12.011    0.000000    0.000000    0.000000
   1 H     1.0000    0     1.008    1.863365    0.000000   -0.832562
   2 H     1.0000    0     1.008   -0.931683    1.613722   -0.832562
   3 H     1.0000    0     1.008   -0.931683   -1.613722   -0.832562

--------------------------------
INTERNAL COORDINATES (ANGSTROEM)
--------------------------------
 C      0   0   0     0.000000000000     0.00000000     0.00000000
 H      1   0   0     1.079999999991     0.00000000     0.00000000
 H      1   2   0     1.079999999965   104.50000000     0.00000000
 H      1   2   3     1.079999999965   104.50000000   109.51230152

---------------------------
INTERNAL COORDINATES (A.U.)
---------------------------
 C      0   0   0     0.000000000000     0.00000000     0.00000000
 H      1   0   0     2.040904224618     0.00000000     0.00000000
 H      1   2   0     2.040904224569   104.50000000     0.00000000
 H      1   2   3     2.040904224569   104.50000000   109.51230152

---------------------
BASIS SET INFORMATION
---------------------
There are 2 groups of distinct atoms

 Group   1 Type C   : 12s6p3d1f contracted to 6s3p3d1f pattern {621111/411/111/1}
 Group   2 Type H   : 5s2p contracted to 3s2p pattern {311/11}

Atom   0C    basis set group =>   1
Atom   1H    basis set group =>   2
Atom   2H    basis set group =>   2
Atom   3H    basis set group =>   2
---------------------------------
AUXILIARY/J BASIS SET INFORMATION
---------------------------------
There are 2 groups of distinct atoms

 Group   1 Type C   : 12s5p4d2f1g contracted to 6s4p3d1f1g pattern {711111/2111/211/2/1}
 Group   2 Type H   : 5s2p1d contracted to 3s1p1d pattern {311/2/1}

Atom   0C    basis set group =>   1
Atom   1H    basis set group =>   2
Atom   2H    basis set group =>   2
Atom   3H    basis set group =>   2


           ************************************************************
           *        Program running with 18 parallel MPI-processes    *
           *              working on a common directory               *
           ************************************************************
------------------------------------------------------------------------------
                           ORCA GTO INTEGRAL CALCULATION
                           -- RI-GTO INTEGRALS CHOSEN --
------------------------------------------------------------------------------
------------------------------------------------------------------------------
                   ___                                                        
                  /   \      - P O W E R E D   B Y -                         
                 /     \                                                     
                 |  |  |   _    _      __       _____    __    __             
                 |  |  |  | |  | |    /  \     |  _  \  |  |  /  |          
                  \  \/   | |  | |   /    \    | | | |  |  | /  /          
                 / \  \   | |__| |  /  /\  \   | |_| |  |  |/  /          
                |  |  |   |  __  | /  /__\  \  |    /   |      \           
                |  |  |   | |  | | |   __   |  |    \   |  |\   \          
                \     /   | |  | | |  |  |  |  | |\  \  |  | \   \       
                 \___/    |_|  |_| |__|  |__|  |_| \__\ |__|  \__/        
                                                                              
                      - O R C A' S   B I G   F R I E N D -                    
                                      &                                       
                       - I N T E G R A L  F E E D E R -                       
                                                                              
 v1 FN, 2020, v2 2021                                                         
------------------------------------------------------------------------------


Reading SHARK input file /beegfs/scratch/ispackman/PFAS_EPR_calcs/benchmark/JChemEd_CF3_radical/CH3_radical_104.5_degrees_IN-PROGRESS/CH3_radical_104.5_degrees.SHARKINP.tmp ... ok
----------------------
SHARK INTEGRAL PACKAGE
----------------------

Number of atoms                             ...      4
Number of basis functions                   ...     64
Number of shells                            ...     28
Maximum angular momentum                    ...      3
Integral batch strategy                     ... SHARK/LIBINT Hybrid
RI-J (if used) integral strategy            ... SPLIT-RIJ (Revised 2003 algorithm where possible)
Printlevel                                  ...      1
Contraction scheme used                     ... SEGMENTED contraction
Coulomb Range Separation                    ... NOT USED
Exchange Range Separation                   ... Long Range
   Mu parameter                             ...  0.250000
   Scaling (regular/separated)              ...  0.195728  0.804272
Finite Nucleus Model                        ... NOT USED
Auxiliary Coulomb fitting basis             ... AVAILABLE
   # of basis functions in Aux-J            ...     82
   # of shells in Aux-J                     ...     30
   Maximum angular momentum in Aux-J        ...      4
Auxiliary J/K fitting basis                 ... NOT available
Auxiliary Correlation fitting basis         ... NOT available
Auxiliary 'external' fitting basis          ... NOT available
Integral threshold                          ...     2.500000e-11
Primitive cut-off                           ...     2.500000e-12
Primitive pair pre-selection threshold      ...     2.500000e-12

Calculating pre-screening integrals         ... done (  0.0 sec) Dimension = 28
Organizing shell pair data                  ... done (  0.0 sec)
Shell pair information
Total number of shell pairs                 ...       406
Shell pairs after pre-screening             ...       406
Total number of primitive shell pairs       ...       977
Primitive shell pairs kept                  ...       947
          la=0 lb=0:    120 shell pairs
          la=1 lb=0:    135 shell pairs
          la=1 lb=1:     45 shell pairs
          la=2 lb=0:     45 shell pairs
          la=2 lb=1:     27 shell pairs
          la=2 lb=2:      6 shell pairs
          la=3 lb=0:     15 shell pairs
          la=3 lb=1:      9 shell pairs
          la=3 lb=2:      3 shell pairs
          la=3 lb=3:      1 shell pairs

Calculating one electron integrals          ... done (  0.0 sec)
Calculating RI/J V-Matrix + Cholesky decomp.... done (  0.1 sec)
Calculating Nuclear repulsion               ... done (  0.0 sec) ENN=      9.749148450658 Eh

SHARK setup successfully completed in   0.3 seconds

Maximum memory used throughout the entire GTOINT-calculation: 14.0 MB


           ************************************************************
           *        Program running with 18 parallel MPI-processes    *
           *              working on a common directory               *
           ************************************************************
-------------------------------------------------------------------------------
                                 ORCA SCF
-------------------------------------------------------------------------------

------------
SCF SETTINGS
------------
Hamiltonian:
 Density Functional     Method          .... DFT(GTOs)
 Exchange Functional    Exchange        .... WB97X-D3
 Correlation Functional Correlation     .... WB97X-D3
 Gradients option       PostSCFGGA      .... off
 Hybrid DFT is turned on
   Fraction HF Exchange ScalHFX         ....  0.195728
   Scaling of DF-GGA-X  ScalDFX         ....  0.000000
   Scaling of DF-GGA-C  ScalDFC         ....  1.000000
   Scaling of DF-LDA-C  ScalLDAC        ....  1.000000
   Perturbative correction              ....  0.000000
   Density functional embedding theory  .... OFF
 Long-range corrected/Screened/Range-Separated Hybrid DFT is turned on
   Amount of maximum screened exact exchange              ....  0.804272
   Range separation parameter mu (erf(mu*r12)/r12)        ....  0.250000
 RI-approximation to the Coulomb term is turned on
   Number of AuxJ basis functions       .... 82
   RIJ-COSX (HFX calculated with COS-X)).... on


General Settings:
 Integral files         IntName         .... /beegfs/scratch/ispackman/PFAS_EPR_calcs/benchmark/JChemEd_CF3_radical/CH3_radical_104.5_degrees_IN-PROGRESS/CH3_radical_104.5_degrees
 Hartree-Fock type      HFTyp           .... UHF
 Total Charge           Charge          ....    0
 Multiplicity           Mult            ....    2
 Number of Electrons    NEL             ....    9
 Basis Dimension        Dim             ....   64
 Nuclear Repulsion      ENuc            ....      9.7491484507 Eh

Convergence Acceleration:
 DIIS                   CNVDIIS         .... on
   Start iteration      DIISMaxIt       ....    12
   Startup error        DIISStart       ....  0.200000
   # of expansion vecs  DIISMaxEq       ....     5
   Bias factor          DIISBfac        ....   1.050
   Max. coefficient     DIISMaxC        ....  10.000
 Trust-Rad. Augm. Hess. CNVTRAH         .... auto
   Auto Start mean grad. ratio tolernc. ....  1.125000
   Auto Start start iteration           ....    20
   Auto Start num. interpolation iter.  ....    10
   Max. Number of Micro iterations      ....    16
   Max. Number of Macro iterations      .... Maxiter - #DIIS iter
   Number of Davidson start vectors     ....     2
   Converg. threshold I  (grad. norm)   ....   1.000e-05
   Converg. threshold II (energy diff.) ....   1.000e-08
   Grad. Scal. Fac. for Micro threshold ....   0.100
   Minimum threshold for Micro iter.    ....   0.010
   NR start threshold (gradient norm)   ....   0.001
   Initial trust radius                 ....   0.400
   Minimum AH scaling param. (alpha)    ....   1.000
   Maximum AH scaling param. (alpha)    .... 1000.000
   Orbital update algorithm             .... Taylor
   White noise on init. David. guess    .... on
   Maximum white noise                  ....   0.010
   Quad. conv. algorithm                .... NR
 SOSCF                  CNVSOSCF        .... off
 Level Shifting         CNVShift        .... on
   Level shift para.    LevelShift      ....    0.2500
   Turn off err/grad.   ShiftErr        ....    0.0010
 Zerner damping         CNVZerner       .... off
 Static damping         CNVDamp         .... on
   Fraction old density DampFac         ....    0.7000
   Max. Damping (<1)    DampMax         ....    0.9800
   Min. Damping (>=0)   DampMin         ....    0.0000
   Turn off err/grad.   DampErr         ....    0.1000
 Fernandez-Rico         CNVRico         .... off

SCF Procedure:
 Maximum # iterations   MaxIter         ....   125
 SCF integral mode      SCFMode         .... Direct
   Integral package                     .... SHARK and LIBINT hybrid scheme
 Reset frequency        DirectResetFreq ....    20
 Integral Threshold     Thresh          ....  2.500e-11 Eh
 Primitive CutOff       TCut            ....  2.500e-12 Eh

Convergence Tolerance:
 Convergence Check Mode ConvCheckMode   .... Total+1el-Energy
 Convergence forced     ConvForced      .... 0
 Energy Change          TolE            ....  1.000e-08 Eh
 1-El. energy change                    ....  1.000e-05 Eh
 DIIS Error             TolErr          ....  5.000e-07


Diagonalization of the overlap matrix:
Smallest eigenvalue                        ... 4.531e-05
Time for diagonalization                   ...    0.002 sec
Threshold for overlap eigenvalues          ... 1.000e-08
Number of eigenvalues below threshold      ... 0
Time for construction of square roots      ...    0.015 sec
Total time needed                          ...    0.018 sec

Time for model grid setup =    0.046 sec

------------------------------
INITIAL GUESS: MODEL POTENTIAL
------------------------------
Loading Hartree-Fock densities                     ... done
Calculating cut-offs                               ... done
Initializing the effective Hamiltonian             ... done
Setting up the integral package (SHARK)            ... done
Starting the Coulomb interaction                   ... done (   0.1 sec)
Reading the grid                                   ... done
Mapping shells                                     ... done
Starting the XC term evaluation                    ... done (   0.0 sec)
  promolecular density results
     # of electrons  =      8.997923689
     EX              =     -5.935422819
     EC              =     -0.259927326
     EX+EC           =     -6.195350145
Transforming the Hamiltonian                       ... done (   0.0 sec)
Diagonalizing the Hamiltonian                      ... done (   0.0 sec)
Back transforming the eigenvectors                 ... done (   0.0 sec)
Now organizing SCF variables                       ... done
                      ------------------
                      INITIAL GUESS DONE (   0.1 sec)
                      ------------------
-------------------
DFT GRID GENERATION
-------------------

General Integration Accuracy     IntAcc      ... 4.388
Radial Grid Type                 RadialGrid  ... OptM3 with GC (2021)
Angular Grid (max. ang.)         AngularGrid ... 4 (Lebedev-302)
Angular grid pruning method      GridPruning ... 4 (adaptive)
Weight generation scheme         WeightScheme... Becke
Basis function cutoff            BFCut       ... 1.0000e-11
Integration weight cutoff        WCut        ... 1.0000e-14
Angular grids for H and He will be reduced by one unit
Partially contracted basis set               ... off
Rotationally invariant grid construction     ... off

Total number of grid points                  ...    17041
Total number of batches                      ...      268
Average number of points per batch           ...       63
Average number of grid points per atom       ...     4260
Time for grid setup =    0.108 sec

--------------------
COSX GRID GENERATION
--------------------

GRIDX 1
-------
General Integration Accuracy     IntAcc      ... 3.816
Radial Grid Type                 RadialGrid  ... OptM3 with GC (2021)
Angular Grid (max. ang.)         AngularGrid ... 1 (Lebedev-50)
Angular grid pruning method      GridPruning ... 4 (adaptive)
Weight generation scheme         WeightScheme... Becke
Basis function cutoff            BFCut       ... 1.0000e-11
Integration weight cutoff        WCut        ... 1.0000e-14
Angular grids for H and He will be reduced by one unit
Partially contracted basis set               ... on
Rotationally invariant grid construction     ... off

Total number of grid points                  ...     2149
Total number of batches                      ...       36
Average number of points per batch           ...       59
Average number of grid points per atom       ...      537
UseSFitting                                  ... on

GRIDX 2
-------
General Integration Accuracy     IntAcc      ... 4.020
Radial Grid Type                 RadialGrid  ... OptM3 with GC (2021)
Angular Grid (max. ang.)         AngularGrid ... 2 (Lebedev-110)
Angular grid pruning method      GridPruning ... 4 (adaptive)
Weight generation scheme         WeightScheme... Becke
Basis function cutoff            BFCut       ... 1.0000e-11
Integration weight cutoff        WCut        ... 1.0000e-14
Angular grids for H and He will be reduced by one unit
Partially contracted basis set               ... on
Rotationally invariant grid construction     ... off

Total number of grid points                  ...     5036
Total number of batches                      ...       80
Average number of points per batch           ...       62
Average number of grid points per atom       ...     1259
UseSFitting                                  ... on

GRIDX 3
-------
General Integration Accuracy     IntAcc      ... 4.338
Radial Grid Type                 RadialGrid  ... OptM3 with GC (2021)
Angular Grid (max. ang.)         AngularGrid ... 3 (Lebedev-194)
Angular grid pruning method      GridPruning ... 4 (adaptive)
Weight generation scheme         WeightScheme... Becke
Basis function cutoff            BFCut       ... 1.0000e-11
Integration weight cutoff        WCut        ... 1.0000e-14
Angular grids for H and He will be reduced by one unit
Partially contracted basis set               ... on
Rotationally invariant grid construction     ... off

Total number of grid points                  ...    11706
Total number of batches                      ...      184
Average number of points per batch           ...       63
Average number of grid points per atom       ...     2926
UseSFitting                                  ... on

Time for X-Grid setup             =    0.248 sec

--------------
SCF ITERATIONS
--------------
ITER       Energy         Delta-E        Max-DP      RMS-DP      [F,P]     Damp
               ***  Starting incremental Fock matrix formation  ***
  0    -39.7823643218   0.000000000000 0.05466335  0.00111410  0.0766472 0.7000
  1    -39.7960481180  -0.013683796206 0.05189913  0.00098920  0.0491500 0.7000
                               ***Turning on DIIS***
  2    -39.8037822338  -0.007734115867 0.11429192  0.00219966  0.0283528 0.0000
  3    -39.8171641424  -0.013381908598 0.03309812  0.00064914  0.0193095 0.0000
  4    -39.8187084525  -0.001544310071 0.01203437  0.00020950  0.0033874 0.0000
  5    -39.8187748740  -0.000066421482 0.01046146  0.00017521  0.0016143 0.0000
  6    -39.8187961983  -0.000021324268 0.01088523  0.00017693  0.0006242 0.0000
               *** Restarting incremental Fock matrix formation ***
                                   *** Resetting DIIS ***
  7    -39.8188080729  -0.000011874643 0.00122067  0.00001964  0.0000814 0.0000
  8    -39.8188082086  -0.000000135658 0.00066524  0.00001082  0.0000348 0.0000
  9    -39.8188082478  -0.000000039223 0.00002053  0.00000076  0.0000141 0.0000
 10    -39.8188082498  -0.000000002012 0.00000698  0.00000023  0.0000055 0.0000
                 **** Energy Check signals convergence ****

               *****************************************************
               *                     SUCCESS                       *
               *           SCF CONVERGED AFTER  11 CYCLES          *
               *****************************************************

Old exchange energy                            =     -2.173787270 Eh
New exchange energy                            =     -2.173790842 Eh
Exchange energy change after final integration =     -0.000003572 Eh
Total energy after final integration           =    -39.818811822 Eh
Final COS-X integration done in                =     0.133 sec

----------------
TOTAL SCF ENERGY
----------------

Total Energy       :          -39.81881182 Eh           -1083.52496 eV

Components:
Nuclear Repulsion  :            9.74914845 Eh             265.28782 eV
Electronic Energy  :          -49.56796027 Eh           -1348.81277 eV
One Electron Energy:          -71.75975705 Eh           -1952.68226 eV
Two Electron Energy:           22.19179677 Eh             603.86949 eV
Max COSX asymmetry :            0.00000020 Eh               0.00001 eV

Virial components:
Potential Energy   :          -79.48021172 Eh           -2162.76651 eV
Kinetic Energy     :           39.66139990 Eh            1079.24156 eV
Virial Ratio       :            2.00396889


DFT components:
N(Alpha)           :        4.999998132691 electrons
N(Beta)            :        4.000000594099 electrons
N(Total)           :        8.999998726789 electrons
E(XC)              :       -4.316437115433 Eh       
DFET-embed. en.    :        0.000000000000 Eh       

---------------
SCF CONVERGENCE
---------------

  Last Energy change         ...   -5.5707e-12  Tolerance :   1.0000e-08
  Last MAX-Density change    ...    0.0000e+00  Tolerance :   1.0000e-07
  Last RMS-Density change    ...    0.0000e+00  Tolerance :   5.0000e-09
  Last DIIS Error            ...    1.2767e-06  Tolerance :   5.0000e-07

             **** THE GBW FILE WAS UPDATED (/beegfs/scratch/ispackman/PFAS_EPR_calcs/benchmark/JChemEd_CF3_radical/CH3_radical_104.5_degrees_IN-PROGRESS/CH3_radical_104.5_degrees.gbw) ****
             **** DENSITY /beegfs/scratch/ispackman/PFAS_EPR_calcs/benchmark/JChemEd_CF3_radical/CH3_radical_104.5_degrees_IN-PROGRESS/CH3_radical_104.5_degrees.scfp WAS UPDATED ****
             **** ENERGY FILE WAS UPDATED (/beegfs/scratch/ispackman/PFAS_EPR_calcs/benchmark/JChemEd_CF3_radical/CH3_radical_104.5_degrees_IN-PROGRESS/CH3_radical_104.5_degrees.en.tmp) ****
----------------------
UHF SPIN CONTAMINATION
----------------------

Warning: in a DFT calculation there is little theoretical justification to 
         calculate <S**2> as in Hartree-Fock theory. We will do it anyways
         but you should keep in mind that the values have only limited relevance

Expectation value of <S**2>     :     0.752944
Ideal value S*(S+1) for S=0.5   :     0.750000
Deviation                       :     0.002944

             **** THE GBW FILE WAS UPDATED (/beegfs/scratch/ispackman/PFAS_EPR_calcs/benchmark/JChemEd_CF3_radical/CH3_radical_104.5_degrees_IN-PROGRESS/CH3_radical_104.5_degrees.gbw) ****
             **** DENSITY /beegfs/scratch/ispackman/PFAS_EPR_calcs/benchmark/JChemEd_CF3_radical/CH3_radical_104.5_degrees_IN-PROGRESS/CH3_radical_104.5_degrees.scfp WAS UPDATED ****
----------------
ORBITAL ENERGIES
----------------
                 SPIN UP ORBITALS
  NO   OCC          E(Eh)            E(eV) 
   0   1.0000     -10.292703      -280.0787 
   1   1.0000      -0.815419       -22.1887 
   2   1.0000      -0.501286       -13.6407 
   3   1.0000      -0.501253       -13.6398 
   4   1.0000      -0.373689       -10.1686 
   5   0.0000       0.075747         2.0612 
   6   0.0000       0.161581         4.3968 
   7   0.0000       0.161589         4.3971 
   8   0.0000       0.185246         5.0408 
   9   0.0000       0.195013         5.3066 
  10   0.0000       0.195016         5.3067 
  11   0.0000       0.228572         6.2198 
  12   0.0000       0.253537         6.8991 
  13   0.0000       0.253540         6.8992 
  14   0.0000       0.314804         8.5662 
  15   0.0000       0.355143         9.6639 
  16   0.0000       0.355154         9.6642 
  17   0.0000       0.362610         9.8671 
  18   0.0000       0.376945        10.2572 
  19   0.0000       0.384378        10.4594 
  20   0.0000       0.384382        10.4596 
  21   0.0000       0.403759        10.9869 
  22   0.0000       0.403767        10.9871 
  23   0.0000       0.532459        14.4890 
  24   0.0000       0.557629        15.1739 
  25   0.0000       0.557638        15.1741 
  26   0.0000       0.595224        16.1969 
  27   0.0000       0.783156        21.3108 
  28   0.0000       0.793010        21.5789 
  29   0.0000       0.793015        21.5790 
  30   0.0000       0.872025        23.7290 
  31   0.0000       0.872032        23.7292 
  32   0.0000       0.987562        26.8729 
  33   0.0000       1.154115        31.4051 
  34   0.0000       1.154115        31.4051 
  35   0.0000       1.641069        44.6557 
  36   0.0000       1.739270        47.3279 
  37   0.0000       1.744507        47.4705 
  38   0.0000       1.744584        47.4725 
  39   0.0000       1.782834        48.5134 
  40   0.0000       1.933135        52.6033 
  41   0.0000       1.933175        52.6044 
  42   0.0000       2.202306        59.9278 
  43   0.0000       2.267019        61.6887 
  44   0.0000       2.267106        61.6911 
  45   0.0000       2.317826        63.0713 
  46   0.0000       2.611315        71.0575 
  47   0.0000       2.611340        71.0582 
  48   0.0000       2.722761        74.0901 
  49   0.0000       2.722848        74.0925 
  50   0.0000       2.855004        77.6886 
  51   0.0000       3.018509        82.1378 
  52   0.0000       3.157969        85.9327 
  53   0.0000       3.158033        85.9345 
  54   0.0000       3.287350        89.4533 
  55   0.0000       3.287386        89.4543 
  56   0.0000       3.372801        91.7786 
  57   0.0000       3.438850        93.5759 
  58   0.0000       3.692098       100.4671 
  59   0.0000       3.692151       100.4685 
  60   0.0000       4.439583       120.8072 
  61   0.0000       4.439840       120.8142 
  62   0.0000       4.464646       121.4892 
  63   0.0000      22.185564       603.6999 

                 SPIN DOWN ORBITALS
  NO   OCC          E(Eh)            E(eV) 
   0   1.0000     -10.281467      -279.7729 
   1   1.0000      -0.777924       -21.1684 
   2   1.0000      -0.486386       -13.2352 
   3   1.0000      -0.486375       -13.2349 
   4   0.0000      -0.023471        -0.6387 
   5   0.0000       0.084570         2.3013 
   6   0.0000       0.166468         4.5298 
   7   0.0000       0.166470         4.5299 
   8   0.0000       0.200409         5.4534 
   9   0.0000       0.200418         5.4536 
  10   0.0000       0.222146         6.0449 
  11   0.0000       0.244273         6.6470 
  12   0.0000       0.258073         7.0225 
  13   0.0000       0.258074         7.0226 
  14   0.0000       0.325527         8.8580 
  15   0.0000       0.368955        10.0398 
  16   0.0000       0.368956        10.0398 
  17   0.0000       0.372924        10.1478 
  18   0.0000       0.376872        10.2552 
  19   0.0000       0.391836        10.6624 
  20   0.0000       0.391837        10.6624 
  21   0.0000       0.413049        11.2396 
  22   0.0000       0.413052        11.2397 
  23   0.0000       0.561067        15.2674 
  24   0.0000       0.561078        15.2677 
  25   0.0000       0.566570        15.4171 
  26   0.0000       0.605478        16.4759 
  27   0.0000       0.791590        21.5402 
  28   0.0000       0.804527        21.8923 
  29   0.0000       0.804528        21.8923 
  30   0.0000       0.894572        24.3425 
  31   0.0000       0.894583        24.3428 
  32   0.0000       1.007359        27.4116 
  33   0.0000       1.163648        31.6645 
  34   0.0000       1.163653        31.6646 
  35   0.0000       1.708595        46.4932 
  36   0.0000       1.740395        47.3586 
  37   0.0000       1.753490        47.7149 
  38   0.0000       1.753591        47.7176 
  39   0.0000       1.797915        48.9238 
  40   0.0000       1.949295        53.0430 
  41   0.0000       1.949355        53.0446 
  42   0.0000       2.206474        60.0412 
  43   0.0000       2.278486        62.0008 
  44   0.0000       2.278543        62.0023 
  45   0.0000       2.332404        63.4679 
  46   0.0000       2.616309        71.1934 
  47   0.0000       2.616311        71.1934 
  48   0.0000       2.746049        74.7238 
  49   0.0000       2.746096        74.7251 
  50   0.0000       2.879280        78.3492 
  51   0.0000       3.065201        83.4084 
  52   0.0000       3.206453        87.2520 
  53   0.0000       3.206516        87.2537 
  54   0.0000       3.323427        90.4350 
  55   0.0000       3.323510        90.4373 
  56   0.0000       3.392566        92.3164 
  57   0.0000       3.472211        94.4837 
  58   0.0000       3.736059       101.6633 
  59   0.0000       3.736093       101.6642 
  60   0.0000       4.461592       121.4061 
  61   0.0000       4.461831       121.4126 
  62   0.0000       4.489855       122.1752 
  63   0.0000      22.205668       604.2470 

                    ********************************
                    * MULLIKEN POPULATION ANALYSIS *
                    ********************************

--------------------------------------------
MULLIKEN ATOMIC CHARGES AND SPIN POPULATIONS
--------------------------------------------
   0 C :   -0.695992    0.881838
   1 H :    0.231679    0.039338
   2 H :    0.232156    0.039412
   3 H :    0.232157    0.039412
Sum of atomic charges         :   -0.0000000
Sum of atomic spin populations:    1.0000000

-----------------------------------------------------
MULLIKEN REDUCED ORBITAL CHARGES AND SPIN POPULATIONS
-----------------------------------------------------
CHARGE
  0 C s       :     3.344025  s :     3.344025
      pz      :     0.943109  p :     3.304048
      px      :     1.180408
      py      :     1.180531
      dz2     :     0.000714  d :     0.047111
      dxz     :     0.014687
      dyz     :     0.014711
      dx2y2   :     0.008488
      dxy     :     0.008511
      f0      :     0.000420  f :     0.000807
      f+1     :     0.000034
      f-1     :     0.000033
      f+2     :    -0.000094
      f-2     :    -0.000088
      f+3     :     0.000504
      f-3     :     0.000000
  1 H s       :     0.722902  s :     0.722902
      pz      :     0.022631  p :     0.045419
      px      :     0.019321
      py      :     0.003467
  2 H s       :     0.722558  s :     0.722558
      pz      :     0.022542  p :     0.045286
      px      :     0.007425
      py      :     0.015319
  3 H s       :     0.722556  s :     0.722556
      pz      :     0.022542  p :     0.045287
      px      :     0.007425
      py      :     0.015320

SPIN
  0 C s       :     0.014333  s :     0.014333
      pz      :     0.868220  p :     0.877353
      px      :     0.004571
      py      :     0.004563
      dz2     :    -0.001361  d :    -0.009074
      dxz     :    -0.003622
      dyz     :    -0.003622
      dx2y2   :    -0.000238
      dxy     :    -0.000232
      f0      :    -0.000427  f :    -0.000774
      f+1     :    -0.000088
      f-1     :    -0.000087
      f+2     :    -0.000019
      f-2     :    -0.000018
      f+3     :    -0.000134
      f-3     :     0.000000
  1 H s       :     0.015961  s :     0.015961
      pz      :     0.019948  p :     0.023377
      px      :     0.000436
      py      :     0.002993
  2 H s       :     0.016102  s :     0.016102
      pz      :     0.019881  p :     0.023311
      px      :     0.002352
      py      :     0.001078
  3 H s       :     0.016101  s :     0.016101
      pz      :     0.019880  p :     0.023311
      px      :     0.002352
      py      :     0.001078


                     *******************************
                     * LOEWDIN POPULATION ANALYSIS *
                     *******************************

-------------------------------------------
LOEWDIN ATOMIC CHARGES AND SPIN POPULATIONS
-------------------------------------------
   0 C :    0.057040    0.834508
   1 H :   -0.019042    0.055163
   2 H :   -0.018999    0.055165
   3 H :   -0.018999    0.055165

----------------------------------------------------
LOEWDIN REDUCED ORBITAL CHARGES AND SPIN POPULATIONS
----------------------------------------------------
CHARGE
  0 C s       :     2.909994  s :     2.909994
      pz      :     0.771355  p :     2.902772
      px      :     1.065712
      py      :     1.065706
      dz2     :     0.005758  d :     0.119472
      dxz     :     0.024144
      dyz     :     0.024151
      dx2y2   :     0.032708
      dxy     :     0.032711
      f0      :     0.001389  f :     0.010723
      f+1     :     0.000044
      f-1     :     0.000043
      f+2     :     0.003267
      f-2     :     0.003271
      f+3     :     0.002709
      f-3     :     0.000000
  1 H s       :     0.754727  s :     0.754727
      pz      :     0.069453  p :     0.264315
      px      :     0.121878
      py      :     0.072984
  2 H s       :     0.754704  s :     0.754704
      pz      :     0.069432  p :     0.264295
      px      :     0.085198
      py      :     0.109666
  3 H s       :     0.754704  s :     0.754704
      pz      :     0.069432  p :     0.264295
      px      :     0.085198
      py      :     0.109666

SPIN
  0 C s       :     0.094382  s :     0.094382
      pz      :     0.712297  p :     0.749294
      px      :     0.018508
      py      :     0.018488
      dz2     :     0.000740  d :    -0.008809
      dxz     :    -0.003081
      dyz     :    -0.003083
      dx2y2   :    -0.001698
      dxy     :    -0.001688
      f0      :    -0.000220  f :    -0.000359
      f+1     :    -0.000043
      f-1     :    -0.000043
      f+2     :    -0.000170
      f-2     :    -0.000169
      f+3     :     0.000287
      f-3     :     0.000000
  1 H s       :    -0.003109  s :    -0.003109
      pz      :     0.056001  p :     0.058272
      px      :     0.003068
      py      :    -0.000797
  2 H s       :    -0.003114  s :    -0.003114
      pz      :     0.056004  p :     0.058279
      px      :     0.000168
      py      :     0.002106
  3 H s       :    -0.003114  s :    -0.003114
      pz      :     0.056004  p :     0.058279
      px      :     0.000168
      py      :     0.002106


                      *****************************
                      * MAYER POPULATION ANALYSIS *
                      *****************************

  NA   - Mulliken gross atomic population
  ZA   - Total nuclear charge
  QA   - Mulliken gross atomic charge
  VA   - Mayer's total valence
  BVA  - Mayer's bonded valence
  FA   - Mayer's free valence

  ATOM       NA         ZA         QA         VA         BVA        FA
  0 C      6.6960     6.0000    -0.6960     3.8060     3.0117     0.7943
  1 H      0.7683     1.0000     0.2317     1.0126     1.0113     0.0014
  2 H      0.7678     1.0000     0.2322     1.0121     1.0107     0.0013
  3 H      0.7678     1.0000     0.2322     1.0120     1.0107     0.0013

  Mayer bond orders larger than 0.100000
B(  0-C ,  1-H ) :   1.0042 B(  0-C ,  2-H ) :   1.0038 B(  0-C ,  3-H ) :   1.0038 


-------
TIMINGS
-------

Total SCF time: 0 days 0 hours 0 min 7 sec 

Total time                  ....       7.841 sec
Sum of individual times     ....       7.160 sec  ( 91.3%)

Fock matrix formation       ....       5.939 sec  ( 75.7%)
  Split-RI-J                ....       0.809 sec  ( 13.6% of F)
  Chain of spheres X        ....       1.309 sec  ( 22.0% of F)
  XC integration            ....       1.214 sec  ( 20.4% of F)
    Basis function eval.    ....       0.052 sec  (  4.3% of XC)
    Density eval.           ....       0.050 sec  (  4.1% of XC)
    XC-Functional eval.     ....       0.054 sec  (  4.5% of XC)
    XC-Potential eval.      ....       0.075 sec  (  6.2% of XC)
Diagonalization             ....       0.167 sec  (  2.1%)
Density matrix formation    ....       0.009 sec  (  0.1%)
Population analysis         ....       0.216 sec  (  2.8%)
Initial guess               ....       0.095 sec  (  1.2%)
Orbital Transformation      ....       0.000 sec  (  0.0%)
Orbital Orthonormalization  ....       0.000 sec  (  0.0%)
DIIS solution               ....       0.332 sec  (  4.2%)
Grid generation             ....       0.402 sec  (  5.1%)

Maximum memory used throughout the entire SCF-calculation: 58.5 MB


-------------------------------------------------------------------------------
                          DFT DISPERSION CORRECTION                            
                                                                               
                              DFTD3 V3.1  Rev 1                                
                              USING zero damping                               
-------------------------------------------------------------------------------
The omegaB97X-D3 functional is recognized. Fit by Chai et al.
Active option DFTDOPT                   ...         3   

molecular C6(AA) [au] = 106.959631 


            DFT-D V3
 parameters
 s6 scaling factor         :     1.0000 
 rs6 scaling factor        :     1.2810 
 s8 scaling factor         :     1.0000 
 rs8 scaling factor        :     1.0940 
 Damping factor alpha6     :    14.0000 
 Damping factor alpha8     :    16.0000 
 ad hoc parameters k1-k3   :    16.0000     1.3333    -4.0000 

 Edisp/kcal,au: -0.005646797532  -0.000008998744 
 E6   /kcal   :  -0.000879024 
 E8   /kcal   :  -0.004767773 
 % E8         :  84.433225201 

-------------------------   ----------------
Dispersion correction           -0.000008999
-------------------------   ----------------


-------------------------   --------------------
FINAL SINGLE POINT ENERGY       -39.818820820690
-------------------------   --------------------



           ************************************************************
           *        Program running with 18 parallel MPI-processes    *
           *              working on a common directory               *
           ************************************************************
------------------------------------------------------------------------------
                         ORCA SCF GRADIENT CALCULATION
------------------------------------------------------------------------------

 ... reading COSX grid (gridx3)
Gradient of the Kohn-Sham DFT energy:
Kohn-Sham wavefunction type      ... UKS
Hartree-Fock exchange scaling    ...    0.196
Number of operators              ...    2
Number of atoms                  ...    4
Basis set dimensions             ...   64
Integral neglect threshold       ... 2.5e-11
Integral primitive cutoff        ... 2.5e-12
SHARK Integral package           ... ON

Nuc. rep. gradient       (SHARK) ... done (  0.0 sec)
HCore & Overlap gradient (SHARK) ... done (  0.0 sec)
RI-J gradient            (SHARK) ... done (  0.1 sec)
COSX-gradient                    ... done (  0.1 sec)
Exchange-correlation gradient    ... done
Dispersion correction            ... done

------------------
CARTESIAN GRADIENT
------------------

WARNING: THERE ARE 3 CONSTRAINED CARTESIAN COORDINATES
   1   C   :    0.000007445   -0.000000023    0.052199971
   2   H   :   -0.017863208    0.000000015   -0.017416958
   3   H   :    0.008889663   -0.015517371   -0.017406900
   4   H   :    0.008889682    0.015517379   -0.017406883

Difference to translation invariance:
           :   -0.0000764184    0.0000000008   -0.0000307708

Difference to rotation invariance:
           :   -0.0000000090    0.0000885800    0.0000000508

Norm of the cartesian gradient     ...    0.0677710249
RMS gradient                       ...    0.0195638097
MAX gradient                       ...    0.0521999710

-------
TIMINGS
-------

Total SCF gradient time            ...        0.636 sec

One electron gradient       ....       0.006 sec  (  1.0%)
RI-J Coulomb gradient       ....       0.141 sec  ( 22.1%)
COSX gradient               ....       0.124 sec  ( 19.5%)
XC gradient                 ....       0.078 sec  ( 12.3%)

Maximum memory used throughout the entire SCFGRAD-calculation: 33.6 MB
------------------------------------------------------------------------------
                         ORCA GEOMETRY RELAXATION STEP
------------------------------------------------------------------------------

Reading the OPT-File                    .... done
Getting information on internals        .... done
Copying old internal coords+grads       .... done
Making the new internal coordinates     .... (new redundants).... done
Validating the new internal coordinates .... (new redundants).... done
Calculating the B-matrix                .... done
Calculating the G,G- and P matrices     .... done
Transforming gradient to internals      .... done
Projecting the internal gradient        .... done
Number of atoms                         ....   4
Number of internal coordinates          ....   7
Current Energy                          ....   -39.818820821 Eh
Current gradient norm                   ....     0.067771025 Eh/bohr
Maximum allowed component of the step   ....  0.300
Current trust radius                    ....  0.300
Evaluating the initial hessian          ....  (Almloef) done
Projecting the Hessian                  .... done
Forming the augmented Hessian           .... done
Diagonalizing the augmented Hessian     .... done
Last element of RFO vector              ....  0.999090414
Lowest eigenvalues of augmented Hessian:
 -0.000681767  0.373574723  0.373574723  0.374256490 1000.000000000
Length of the computed step             ....  0.042680868
The final length of the internal step   ....  0.042680868
Converting the step to cartesian space:
 Initial RMS(Int)=    0.0161318516
Transforming coordinates:
 Iter   0:  RMS(Cart)=    0.0115263943 RMS(Int)=    0.0161318517
 Iter   1:  RMS(Cart)=    0.0000000001 RMS(Int)=    0.0000000003
Imposing constraints:
 Iter   0:  RMS(Cart)=    0.0000000005 RMS(Int)=    0.0000000010
CONVERGED
done
Storing new coordinates                 .... done

                                .--------------------.
          ----------------------|Geometry convergence|-------------------------
          Item                value                   Tolerance       Converged
          ---------------------------------------------------------------------
          RMS gradient        0.0060374502            0.0001000000      NO
          MAX gradient        0.0092365101            0.0003000000      NO
          RMS step            0.0161318516            0.0020000000      NO
          MAX step            0.0246796258            0.0040000000      NO
          ........................................................
          Max(Bonds)      0.0131      Max(Angles)    0.00
          Max(Dihed)        0.00      Max(Improp)    0.00
          ---------------------------------------------------------------------

The optimization has not yet converged - more geometry cycles are needed


    ---------------------------------------------------------------------------
                         Redundant Internal Coordinates
                            (Angstroem and degrees)

        Definition                    Value    dE/dq     Step     New-Value
    ----------------------------------------------------------------------------
     1. B(H   1,C   0)                1.0800 -0.009194  0.0130    1.0930   
     2. B(H   2,C   0)                1.0800 -0.009236  0.0131    1.0931   
     3. B(H   3,C   0)                1.0800 -0.009237  0.0131    1.0931   
     4. A(H   2,C   0,H   3)          104.50 -0.031787    0.00    104.50 C 
     5. A(H   1,C   0,H   2)          104.50 -0.013187    0.00    104.50 C 
     6. A(H   1,C   0,H   3)          104.50 -0.013187    0.00    104.50 C 
     7. I(H   1,H   3,H   2,C   0)     65.86  0.032051    0.00     65.86   
    ----------------------------------------------------------------------------

         *************************************************************
         *                GEOMETRY OPTIMIZATION CYCLE   2            *
         *************************************************************
---------------------------------
CARTESIAN COORDINATES (ANGSTROEM)
---------------------------------
  C      0.000017    0.000000    0.003990
  H      0.997932    0.000000   -0.441898
  H     -0.498975    0.864271   -0.441905
  H     -0.498975   -0.864271   -0.441905

----------------------------
CARTESIAN COORDINATES (A.U.)
----------------------------
  NO LB      ZA    FRAG     MASS         X           Y           Z
   0 C     6.0000    0    12.011    0.000033    0.000000    0.007539
   1 H     1.0000    0     1.008    1.885818    0.000000   -0.835065
   2 H     1.0000    0     1.008   -0.942925    1.633236   -0.835080
   3 H     1.0000    0     1.008   -0.942925   -1.633236   -0.835080

--------------------------------
INTERNAL COORDINATES (ANGSTROEM)
--------------------------------
 C      0   0   0     0.000000000000     0.00000000     0.00000000
 H      1   0   0     1.092999798695     0.00000000     0.00000000
 H      1   2   0     1.093059866808   104.50000003     0.00000000
 H      1   2   3     1.093059895435   104.50000003   109.51230162

---------------------------
INTERNAL COORDINATES (A.U.)
---------------------------
 C      0   0   0     0.000000000000     0.00000000     0.00000000
 H      1   0   0     2.065470283965     0.00000000     0.00000000
 H      1   2   0     2.065583796247   104.50000003     0.00000000
 H      1   2   3     2.065583850346   104.50000003   109.51230162



           ************************************************************
           *        Program running with 18 parallel MPI-processes    *
           *              working on a common directory               *
           ************************************************************
------------------------------------------------------------------------------
                   ___                                                        
                  /   \      - P O W E R E D   B Y -                         
                 /     \                                                     
                 |  |  |   _    _      __       _____    __    __             
                 |  |  |  | |  | |    /  \     |  _  \  |  |  /  |          
                  \  \/   | |  | |   /    \    | | | |  |  | /  /          
                 / \  \   | |__| |  /  /\  \   | |_| |  |  |/  /          
                |  |  |   |  __  | /  /__\  \  |    /   |      \           
                |  |  |   | |  | | |   __   |  |    \   |  |\   \          
                \     /   | |  | | |  |  |  |  | |\  \  |  | \   \       
                 \___/    |_|  |_| |__|  |__|  |_| \__\ |__|  \__/        
                                                                              
                      - O R C A' S   B I G   F R I E N D -                    
                                      &                                       
                       - I N T E G R A L  F E E D E R -                       
                                                                              
 v1 FN, 2020, v2 2021                                                         
------------------------------------------------------------------------------


Reading SHARK input file /beegfs/scratch/ispackman/PFAS_EPR_calcs/benchmark/JChemEd_CF3_radical/CH3_radical_104.5_degrees_IN-PROGRESS/CH3_radical_104.5_degrees.SHARKINP.tmp ... ok
----------------------
SHARK INTEGRAL PACKAGE
----------------------

Number of atoms                             ...      4
Number of basis functions                   ...     64
Number of shells                            ...     28
Maximum angular momentum                    ...      3
Integral batch strategy                     ... SHARK/LIBINT Hybrid
RI-J (if used) integral strategy            ... SPLIT-RIJ (Revised 2003 algorithm where possible)
Printlevel                                  ...      1
Contraction scheme used                     ... SEGMENTED contraction
Coulomb Range Separation                    ... NOT USED
Exchange Range Separation                   ... Long Range
   Mu parameter                             ...  0.250000
   Scaling (regular/separated)              ...  0.195728  0.804272
Finite Nucleus Model                        ... NOT USED
Auxiliary Coulomb fitting basis             ... AVAILABLE
   # of basis functions in Aux-J            ...     82
   # of shells in Aux-J                     ...     30
   Maximum angular momentum in Aux-J        ...      4
Auxiliary J/K fitting basis                 ... NOT available
Auxiliary Correlation fitting basis         ... NOT available
Auxiliary 'external' fitting basis          ... NOT available
Integral threshold                          ...     2.500000e-11
Primitive cut-off                           ...     2.500000e-12
Primitive pair pre-selection threshold      ...     2.500000e-12

Calculating pre-screening integrals         ... done (  0.0 sec) Dimension = 28
Organizing shell pair data                  ... done (  0.0 sec)
Shell pair information
Total number of shell pairs                 ...       406
Shell pairs after pre-screening             ...       406
Total number of primitive shell pairs       ...       977
Primitive shell pairs kept                  ...       947
          la=0 lb=0:    120 shell pairs
          la=1 lb=0:    135 shell pairs
          la=1 lb=1:     45 shell pairs
          la=2 lb=0:     45 shell pairs
          la=2 lb=1:     27 shell pairs
          la=2 lb=2:      6 shell pairs
          la=3 lb=0:     15 shell pairs
          la=3 lb=1:      9 shell pairs
          la=3 lb=2:      3 shell pairs
          la=3 lb=3:      1 shell pairs

Calculating one electron integrals          ... done (  0.0 sec)
Calculating RI/J V-Matrix + Cholesky decomp.... done (  0.1 sec)
Calculating Nuclear repulsion               ... done (  0.0 sec) ENN=      9.632842112239 Eh

SHARK setup successfully completed in   0.2 seconds

Maximum memory used throughout the entire GTOINT-calculation: 14.0 MB


           ************************************************************
           *        Program running with 18 parallel MPI-processes    *
           *              working on a common directory               *
           ************************************************************

Diagonalization of the overlap matrix:
Smallest eigenvalue                        ... 4.954e-05
Time for diagonalization                   ...    0.002 sec
Threshold for overlap eigenvalues          ... 1.000e-08
Number of eigenvalues below threshold      ... 0
Time for construction of square roots      ...    0.010 sec
Total time needed                          ...    0.013 sec

-------------------
DFT GRID GENERATION
-------------------

General Integration Accuracy     IntAcc      ... 4.388
Radial Grid Type                 RadialGrid  ... OptM3 with GC (2021)
Angular Grid (max. ang.)         AngularGrid ... 4 (Lebedev-302)
Angular grid pruning method      GridPruning ... 4 (adaptive)
Weight generation scheme         WeightScheme... Becke
Basis function cutoff            BFCut       ... 1.0000e-11
Integration weight cutoff        WCut        ... 1.0000e-14
Angular grids for H and He will be reduced by one unit
Partially contracted basis set               ... off
Rotationally invariant grid construction     ... off

Total number of grid points                  ...    17043
Total number of batches                      ...      268
Average number of points per batch           ...       63
Average number of grid points per atom       ...     4261
Time for grid setup =    0.090 sec

--------------------
COSX GRID GENERATION
--------------------

GRIDX 1
-------
General Integration Accuracy     IntAcc      ... 3.816
Radial Grid Type                 RadialGrid  ... OptM3 with GC (2021)
Angular Grid (max. ang.)         AngularGrid ... 1 (Lebedev-50)
Angular grid pruning method      GridPruning ... 4 (adaptive)
Weight generation scheme         WeightScheme... Becke
Basis function cutoff            BFCut       ... 1.0000e-11
Integration weight cutoff        WCut        ... 1.0000e-14
Angular grids for H and He will be reduced by one unit
Partially contracted basis set               ... on
Rotationally invariant grid construction     ... off

Total number of grid points                  ...     2149
Total number of batches                      ...       36
Average number of points per batch           ...       59
Average number of grid points per atom       ...      537
UseSFitting                                  ... on

GRIDX 2
-------
General Integration Accuracy     IntAcc      ... 4.020
Radial Grid Type                 RadialGrid  ... OptM3 with GC (2021)
Angular Grid (max. ang.)         AngularGrid ... 2 (Lebedev-110)
Angular grid pruning method      GridPruning ... 4 (adaptive)
Weight generation scheme         WeightScheme... Becke
Basis function cutoff            BFCut       ... 1.0000e-11
Integration weight cutoff        WCut        ... 1.0000e-14
Angular grids for H and He will be reduced by one unit
Partially contracted basis set               ... on
Rotationally invariant grid construction     ... off

Total number of grid points                  ...     5036
Total number of batches                      ...       82
Average number of points per batch           ...       61
Average number of grid points per atom       ...     1259
UseSFitting                                  ... on

GRIDX 3
-------
General Integration Accuracy     IntAcc      ... 4.338
Radial Grid Type                 RadialGrid  ... OptM3 with GC (2021)
Angular Grid (max. ang.)         AngularGrid ... 3 (Lebedev-194)
Angular grid pruning method      GridPruning ... 4 (adaptive)
Weight generation scheme         WeightScheme... Becke
Basis function cutoff            BFCut       ... 1.0000e-11
Integration weight cutoff        WCut        ... 1.0000e-14
Angular grids for H and He will be reduced by one unit
Partially contracted basis set               ... on
Rotationally invariant grid construction     ... off

Total number of grid points                  ...    11710
Total number of batches                      ...      185
Average number of points per batch           ...       63
Average number of grid points per atom       ...     2928
UseSFitting                                  ... on

Time for X-Grid setup             =    0.244 sec

--------------
SCF ITERATIONS
--------------
ITER       Energy         Delta-E        Max-DP      RMS-DP      [F,P]     Damp
               ***  Starting incremental Fock matrix formation  ***
  0    -39.8190559564   0.000000000000 0.00716290  0.00012529  0.0032610 0.7000
  1    -39.8190874312  -0.000031474794 0.00631076  0.00010974  0.0022079 0.7000
                               ***Turning on DIIS***
  2    -39.8191084947  -0.000021063568 0.01647560  0.00028526  0.0015127 0.0000
  3    -39.8191547944  -0.000046299686 0.00390874  0.00006894  0.0006069 0.0000
               *** Restarting incremental Fock matrix formation ***
                                   *** Resetting DIIS ***
  4    -39.8191569568  -0.000002162401 0.00036737  0.00001200  0.0002716 0.0000
  5    -39.8191573174  -0.000000360620 0.00034536  0.00000679  0.0001654 0.0000
  6    -39.8191574633  -0.000000145847 0.00007743  0.00000271  0.0000332 0.0000
  7    -39.8191574766  -0.000000013314 0.00003273  0.00000094  0.0000088 0.0000
                 **** Energy Check signals convergence ****

               *****************************************************
               *                     SUCCESS                       *
               *           SCF CONVERGED AFTER   8 CYCLES          *
               *****************************************************

Old exchange energy                            =     -2.170261542 Eh
New exchange energy                            =     -2.170265225 Eh
Exchange energy change after final integration =     -0.000003682 Eh
Total energy after final integration           =    -39.819161160 Eh
Final COS-X integration done in                =     0.118 sec
Total Energy       :          -39.81916116 Eh           -1083.53446 eV
  Last Energy change         ...   -8.7834e-10  Tolerance :   1.0000e-08
  Last MAX-Density change    ...    0.0000e+00  Tolerance :   1.0000e-07
             **** THE GBW FILE WAS UPDATED (/beegfs/scratch/ispackman/PFAS_EPR_calcs/benchmark/JChemEd_CF3_radical/CH3_radical_104.5_degrees_IN-PROGRESS/CH3_radical_104.5_degrees.gbw) ****
             **** DENSITY /beegfs/scratch/ispackman/PFAS_EPR_calcs/benchmark/JChemEd_CF3_radical/CH3_radical_104.5_degrees_IN-PROGRESS/CH3_radical_104.5_degrees.scfp WAS UPDATED ****
             **** ENERGY FILE WAS UPDATED (/beegfs/scratch/ispackman/PFAS_EPR_calcs/benchmark/JChemEd_CF3_radical/CH3_radical_104.5_degrees_IN-PROGRESS/CH3_radical_104.5_degrees.en.tmp) ****
----------------------
UHF SPIN CONTAMINATION
----------------------

Warning: in a DFT calculation there is little theoretical justification to 
         calculate <S**2> as in Hartree-Fock theory. We will do it anyways
         but you should keep in mind that the values have only limited relevance

Expectation value of <S**2>     :     0.753024
Ideal value S*(S+1) for S=0.5   :     0.750000
Deviation                       :     0.003024

             **** THE GBW FILE WAS UPDATED (/beegfs/scratch/ispackman/PFAS_EPR_calcs/benchmark/JChemEd_CF3_radical/CH3_radical_104.5_degrees_IN-PROGRESS/CH3_radical_104.5_degrees.gbw) ****
             **** DENSITY /beegfs/scratch/ispackman/PFAS_EPR_calcs/benchmark/JChemEd_CF3_radical/CH3_radical_104.5_degrees_IN-PROGRESS/CH3_radical_104.5_degrees.scfp WAS UPDATED ****
Total SCF time: 0 days 0 hours 0 min 5 sec 

Maximum memory used throughout the entire SCF-calculation: 58.5 MB


-------------------------------------------------------------------------------
                          DFT DISPERSION CORRECTION                            
                                                                               
                              DFTD3 V3.1  Rev 1                                
                              USING zero damping                               
-------------------------------------------------------------------------------
-------------------------   ----------------
Dispersion correction           -0.000009907
-------------------------   ----------------


-------------------------   --------------------
FINAL SINGLE POINT ENERGY       -39.819171066385
-------------------------   --------------------



           ************************************************************
           *        Program running with 18 parallel MPI-processes    *
           *              working on a common directory               *
           ************************************************************
------------------------------------------------------------------------------
                         ORCA SCF GRADIENT CALCULATION
------------------------------------------------------------------------------

 ... reading COSX grid (gridx3)
Gradient of the Kohn-Sham DFT energy:
Kohn-Sham wavefunction type      ... UKS
Hartree-Fock exchange scaling    ...    0.196
Number of operators              ...    2
Number of atoms                  ...    4
Basis set dimensions             ...   64
Integral neglect threshold       ... 2.5e-11
Integral primitive cutoff        ... 2.5e-12
SHARK Integral package           ... ON

Nuc. rep. gradient       (SHARK) ... done (  0.0 sec)
HCore & Overlap gradient (SHARK) ... done (  0.0 sec)
RI-J gradient            (SHARK) ... done (  0.1 sec)
COSX-gradient                    ... done (  0.1 sec)
Exchange-correlation gradient    ... done
Dispersion correction            ... done

------------------
CARTESIAN GRADIENT
------------------

WARNING: THERE ARE 3 CONSTRAINED CARTESIAN COORDINATES
   1   C   :    0.000042207   -0.000000066    0.061063151
   2   H   :   -0.009498593    0.000000009   -0.020363129
   3   H   :    0.004688664   -0.008240577   -0.020368038
   4   H   :    0.004688626    0.008240563   -0.020368030

Difference to translation invariance:
           :   -0.0000790965   -0.0000000717   -0.0000360457

Difference to rotation invariance:
           :   -0.0000000156    0.0000895425   -0.0000000317

Norm of the cartesian gradient     ...    0.0724091490
RMS gradient                       ...    0.0209027208
MAX gradient                       ...    0.0610631509

-------
TIMINGS
-------

Total SCF gradient time            ...        0.624 sec

One electron gradient       ....       0.006 sec  (  1.0%)
RI-J Coulomb gradient       ....       0.131 sec  ( 21.1%)
COSX gradient               ....       0.115 sec  ( 18.5%)
XC gradient                 ....       0.057 sec  (  9.1%)

Maximum memory used throughout the entire SCFGRAD-calculation: 33.6 MB
------------------------------------------------------------------------------
                         ORCA GEOMETRY RELAXATION STEP
------------------------------------------------------------------------------

Reading the OPT-File                    .... done
Getting information on internals        .... done
Copying old internal coords+grads       .... done
Making the new internal coordinates     .... (new redundants).... done
Validating the new internal coordinates .... (new redundants).... done
Calculating the B-matrix                .... done
Calculating the G,G- and P matrices     .... done
Transforming gradient to internals      .... done
Projecting the internal gradient        .... done
Number of atoms                         ....   4
Number of internal coordinates          ....   7
Current Energy                          ....   -39.819171066 Eh
Current gradient norm                   ....     0.072409149 Eh/bohr
Maximum allowed component of the step   ....  0.300
Current trust radius                    ....  0.300
Updating the Hessian (BFGS)             .... done
Forming the augmented Hessian           .... done
Diagonalizing the augmented Hessian     .... done
Last element of RFO vector              ....  0.999998523
Lowest eigenvalues of augmented Hessian:
 -0.000001063  0.359771127  0.373574723  0.373574803 999.999999994
Length of the computed step             ....  0.001718569
The final length of the internal step   ....  0.001718569
Converting the step to cartesian space:
 Initial RMS(Int)=    0.0006495580
Transforming coordinates:
 Iter   0:  RMS(Cart)=    0.0004641157 RMS(Int)=    0.0006495580
 Iter   1:  RMS(Cart)=    0.0000000000 RMS(Int)=    0.0000000000
Imposing constraints:
 Iter   0:  RMS(Cart)=    0.0000000002 RMS(Int)=    0.0000000006
CONVERGED
done
Storing new coordinates                 .... done

                                .--------------------.
          ----------------------|Geometry convergence|-------------------------
          Item                value                   Tolerance       Converged
          ---------------------------------------------------------------------
          Energy change      -0.0003502457            0.0000050000      NO
          RMS gradient        0.0002336922            0.0001000000      NO
          MAX gradient        0.0003580868            0.0003000000      NO
          RMS step            0.0006495580            0.0020000000      YES
          MAX step            0.0009953213            0.0040000000      YES
          ........................................................
          Max(Bonds)      0.0005      Max(Angles)    0.00
          Max(Dihed)        0.00      Max(Improp)    0.00
          ---------------------------------------------------------------------

       The step convergence is overachieved with 
       reasonable convergence on the gradient
       Convergence will therefore be signaled now


                    ***********************HURRAY********************
                    ***        THE OPTIMIZATION HAS CONVERGED     ***
                    *************************************************


    ---------------------------------------------------------------------------
                         Redundant Internal Coordinates

                          --- Optimized Parameters ---  
                            (Angstroem and degrees)

        Definition                    OldVal   dE/dq     Step     FinalVal
    ----------------------------------------------------------------------------
     1. B(H   1,C   0)                1.0930 -0.000355  0.0005    1.0935   
     2. B(H   2,C   0)                1.0931 -0.000358  0.0005    1.0936   
     3. B(H   3,C   0)                1.0931 -0.000358  0.0005    1.0936   
     4. A(H   2,C   0,H   3)          104.50 -0.031166    0.00    104.50 C 
     5. A(H   1,C   0,H   2)          104.50 -0.012929    0.00    104.50 C 
     6. A(H   1,C   0,H   3)          104.50 -0.012928    0.00    104.50 C 
     7. I(H   1,H   3,H   2,C   0)     65.86  0.031424   -0.00     65.86   
    ----------------------------------------------------------------------------
                 *******************************************************
                 *** FINAL ENERGY EVALUATION AT THE STATIONARY POINT ***
                 ***               (AFTER    2 CYCLES)               ***
                 *******************************************************
---------------------------------
CARTESIAN COORDINATES (ANGSTROEM)
---------------------------------
  C      0.000019    0.000000    0.004150
  H      0.998409    0.000000   -0.441951
  H     -0.499214    0.864687   -0.441959
  H     -0.499214   -0.864688   -0.441959

----------------------------
CARTESIAN COORDINATES (A.U.)
----------------------------
  NO LB      ZA    FRAG     MASS         X           Y           Z
   0 C     6.0000    0    12.011    0.000036    0.000000    0.007843
   1 H     1.0000    0     1.008    1.886720    0.000000   -0.835166
   2 H     1.0000    0     1.008   -0.943378    1.634023   -0.835182
   3 H     1.0000    0     1.008   -0.943378   -1.634023   -0.835182

--------------------------------
INTERNAL COORDINATES (ANGSTROEM)
--------------------------------
 C      0   0   0     0.000000000000     0.00000000     0.00000000
 H      1   0   0     1.093521566652     0.00000000     0.00000000
 H      1   2   0     1.093586556799   104.50000006     0.00000000
 H      1   2   3     1.093586596791   104.50000006   109.51230165

---------------------------
INTERNAL COORDINATES (A.U.)
---------------------------
 C      0   0   0     0.000000000000     0.00000000     0.00000000
 H      1   0   0     2.066456282510     0.00000000     0.00000000
 H      1   2   0     2.066579096089   104.50000006     0.00000000
 H      1   2   3     2.066579171661   104.50000006   109.51230165

---------------------
BASIS SET INFORMATION
---------------------
There are 2 groups of distinct atoms

 Group   1 Type C   : 12s6p3d1f contracted to 6s3p3d1f pattern {621111/411/111/1}
 Group   2 Type H   : 5s2p contracted to 3s2p pattern {311/11}

Atom   0C    basis set group =>   1
Atom   1H    basis set group =>   2
Atom   2H    basis set group =>   2
Atom   3H    basis set group =>   2
---------------------------------
AUXILIARY/J BASIS SET INFORMATION
---------------------------------
There are 2 groups of distinct atoms

 Group   1 Type C   : 12s5p4d2f1g contracted to 6s4p3d1f1g pattern {711111/2111/211/2/1}
 Group   2 Type H   : 5s2p1d contracted to 3s1p1d pattern {311/2/1}

Atom   0C    basis set group =>   1
[...]
  ZA   - Total nuclear charge
  QA   - Mulliken gross atomic charge
  VA   - Mayer's total valence
  BVA  - Mayer's bonded valence
  FA   - Mayer's free valence

  ATOM       NA         ZA         QA         VA         BVA        FA
  0 C      6.6805     6.0000    -0.6805     3.8114     3.0100     0.8014
  1 H      0.7735     1.0000     0.2265     1.0163     1.0151     0.0012
  2 H      0.7730     1.0000     0.2270     1.0156     1.0144     0.0012
  3 H      0.7730     1.0000     0.2270     1.0156     1.0144     0.0012

  Mayer bond orders larger than 0.100000
B(  0-C ,  1-H ) :   1.0037 B(  0-C ,  2-H ) :   1.0031 B(  0-C ,  3-H ) :   1.0031 


-------
TIMINGS
-------

Total SCF time: 0 days 0 hours 0 min 4 sec 

Total time                  ....       4.555 sec
Sum of individual times     ....       4.036 sec  ( 88.6%)

Fock matrix formation       ....       3.308 sec  ( 72.6%)
  Split-RI-J                ....       0.545 sec  ( 16.5% of F)
  Chain of spheres X        ....       0.892 sec  ( 27.0% of F)
  XC integration            ....       0.639 sec  ( 19.3% of F)
    Basis function eval.    ....       0.030 sec  (  4.7% of XC)
    Density eval.           ....       0.030 sec  (  4.6% of XC)
    XC-Functional eval.     ....       0.032 sec  (  5.0% of XC)
    XC-Potential eval.      ....       0.040 sec  (  6.3% of XC)
Diagonalization             ....       0.085 sec  (  1.9%)
Density matrix formation    ....       0.014 sec  (  0.3%)
Population analysis         ....       0.157 sec  (  3.4%)
Initial guess               ....       0.005 sec  (  0.1%)
Orbital Transformation      ....       0.000 sec  (  0.0%)
Orbital Orthonormalization  ....       0.002 sec  (  0.0%)
DIIS solution               ....       0.135 sec  (  3.0%)
Grid generation             ....       0.334 sec  (  7.3%)

Maximum memory used throughout the entire SCF-calculation: 58.5 MB


-------------------------------------------------------------------------------
                          DFT DISPERSION CORRECTION                            
                                                                               
                              DFTD3 V3.1  Rev 1                                
                              USING zero damping                               
-------------------------------------------------------------------------------
The omegaB97X-D3 functional is recognized. Fit by Chai et al.
Active option DFTDOPT                   ...         3   

molecular C6(AA) [au] = 106.993076 


            DFT-D V3
 parameters
 s6 scaling factor         :     1.0000 
 rs6 scaling factor        :     1.2810 
 s8 scaling factor         :     1.0000 
 rs8 scaling factor        :     1.0940 
 Damping factor alpha6     :    14.0000 
 Damping factor alpha8     :    16.0000 
 ad hoc parameters k1-k3   :    16.0000     1.3333    -4.0000 

 Edisp/kcal,au: -0.006240594923  -0.000009945020 
 E6   /kcal   :  -0.000971573 
 E8   /kcal   :  -0.005269022 
 % E8         :  84.431406977 

-------------------------   ----------------
Dispersion correction           -0.000009945
-------------------------   ----------------


-------------------------   --------------------
FINAL SINGLE POINT ENERGY       -39.819171621461
-------------------------   --------------------

                                *** OPTIMIZATION RUN DONE ***

                            ***************************************
                            *     ORCA property calculations      *
                            ***************************************

                                    ---------------------
                                    Active property flags
                                    ---------------------
   (+) Dipole Moment


------------------------------------------------------------------------------
                       ORCA ELECTRIC PROPERTIES CALCULATION
------------------------------------------------------------------------------

Dipole Moment Calculation                       ... on
Quadrupole Moment Calculation                   ... off
Polarizability Calculation                      ... off
GBWName                                         ... /beegfs/scratch/ispackman/PFAS_EPR_calcs/benchmark/JChemEd_CF3_radical/CH3_radical_104.5_degrees_IN-PROGRESS/CH3_radical_104.5_degrees.gbw
Electron density                                ... /beegfs/scratch/ispackman/PFAS_EPR_calcs/benchmark/JChemEd_CF3_radical/CH3_radical_104.5_degrees_IN-PROGRESS/CH3_radical_104.5_degrees.scfp
The origin for moment calculation is the CENTER OF MASS  = ( 0.000026,  0.000000 -0.161714)

-------------
DIPOLE MOMENT
-------------
                                X             Y             Z
Electronic contribution:      0.00003      -0.00000       0.72252
Nuclear contribution   :     -0.00006      -0.00000      -1.00304
                        -----------------------------------------
Total Dipole Moment    :     -0.00002      -0.00000      -0.28052
                        -----------------------------------------
Magnitude (a.u.)       :      0.28052
Magnitude (Debye)      :      0.71303



--------------------
Rotational spectrum 
--------------------
 
Rotational constants in cm-1:     8.479788     8.479278     5.592104 
Rotational constants in MHz : 254217.643029 254202.366465 167647.053694 

 Dipole components along the rotational axes: 
x,y,z [a.u.] :     0.000000    -0.000032    -0.280524 
x,y,z [Debye]:     0.000000    -0.000081    -0.713035 

 


           ************************************************************
           *        Program running with 18 parallel MPI-processes    *
           *              working on a common directory               *
           ************************************************************

-------------------------------------------------------------------------------
                               ORCA SCF HESSIAN
-------------------------------------------------------------------------------

                   --------- SHARK INITIALIZATION DONE ---------

Hessian of the Kohn-Sham DFT energy:
Kohn-Sham wavefunction type                      ... UKS
Hartree-Fock exchange scaling                    ...    0.196
Number of operators                              ...    2
Number of atoms                                  ...    4
Basis set dimensions                             ...   64
Integral neglect threshold                       ... 2.5e-11
Integral primitive cutoff                        ... 2.5e-12

Setting up DFT Hessian calculations              ... 

HESS GRID
---------

General Integration Accuracy     IntAcc      ... 4.629
Radial Grid Type                 RadialGrid  ... OptM3 with GC (2021)
Angular Grid (max. ang.)         AngularGrid ... 5 (Lebedev-434)
Angular grid pruning method      GridPruning ... 4 (adaptive)
Weight generation scheme         WeightScheme... Becke
Basis function cutoff            BFCut       ... 1.0000e-11
Integration weight cutoff        WCut        ... 1.0000e-14
Angular grids for H and He will be reduced by one unit
Partially contracted basis set               ... off
Rotationally invariant grid construction     ... off

Total number of grid points                  ...    27261
Total number of batches                      ...      428
Average number of points per batch           ...       63
Average number of grid points per atom       ...     6815

Building densities                               ... done   (      0.0 sec)
Calculating rho(r) on the grid                   ... done   (      0.1 sec)
Building xc-kernel on the grid                   ... done   (      0.1 sec)
                                                     done   (      0.4 sec)

Nuclear repulsion Hessian  (SHARK)               ... done   (      0.0 sec)

----------------------------------------------
Forming right-hand sides of CP-SCF equations     ...
----------------------------------------------
One electron integral derivatives  (SHARK)       ... done   (      0.0 sec)
Transforming the overlap derivative matrices     ... done   (      0.0 sec)
Making the Q(x) pseudodensities                  ... done   (      0.0 sec)
Adding the E*S(x)*S(y) terms to the Hessian      ... done   (      0.0 sec)
Calculating energy weighted overlap derivatives  ... done   (      0.0 sec)
Two electron integral derivatives (SHARK-RI)     ... done   (      0.5 sec)
Exchange-correlation integral derivatives        ... done   (      0.4 sec)
tr(F(y)Q(x)) contribution to the Hessian         ... done   (      0.0 sec)
Response fock operator R(S(x)) (SHARK-RIJCOSX)   ... done   (      0.5 sec)
XC Response fock operator R(S(x))                ... done   (      0.1 sec)
tr(F(y)S(x)) contribution to the Hessian         ... done   (      0.0 sec)
Transforming and finalizing RHSs                 ... done   (      0.0 sec)

----------------------------------------------
Solving the CP-SCF equations (RIJCOSX)           ...
----------------------------------------------
     CP-SCF ITERATION   0:   1.0965e-01 (   0.3 sec   0/ 12 done)
     CP-SCF ITERATION   1:   2.8155e-02 (   0.3 sec   0/ 12 done)
     CP-SCF ITERATION   2:   8.8266e-03 (   0.3 sec   0/ 12 done)
     CP-SCF ITERATION   3:   2.9794e-03 (   0.3 sec   0/ 12 done)
     CP-SCF ITERATION   4:   5.1791e-04 (   0.3 sec   2/ 12 done)
     CP-SCF ITERATION   5:   1.0695e-04 (   0.3 sec  11/ 12 done)
     CP-SCF ITERATION   6:   2.3978e-05 (   0.3 sec  12/ 12 done)
                    *** THE CP-SCF HAS CONVERGED ***

                                                 ... done   (      2.2 sec)
Forming perturbed density Hessian contributions  ... done   (      0.0 sec)
2nd integral derivative contribs (SHARK-RI)      ... done   (      0.7 sec)
Exchange-correlation Hessian                     ... done   (      0.3 sec)
Dispersion correction in the Hessian             ... done   (      0.1 sec)
Dipole derivatives                               ... (center of mass:  0.000026,  0.000000 -0.161714)done   (      0.1 sec)

Total SCF Hessian time: 0 days 0 hours 0 min 5 sec 

Writing the Hessian file to the disk             ... done


Maximum memory used throughout the entire SCFHESS-calculation: 109.3 MB

-----------------------
VIBRATIONAL FREQUENCIES
-----------------------

Scaling factor for frequencies =  1.000000000  (already applied!)

   0:         0.00 cm**-1
   1:         0.00 cm**-1
   2:         0.00 cm**-1
   3:         0.00 cm**-1
   4:         0.00 cm**-1
   5:         0.00 cm**-1
   6:      1244.29 cm**-1
   7:      1405.36 cm**-1
   8:      1408.25 cm**-1
   9:      3061.76 cm**-1
  10:      3136.63 cm**-1
  11:      3136.71 cm**-1


------------
NORMAL MODES
------------

These modes are the Cartesian displacements weighted by the diagonal matrix
M(i,i)=1/sqrt(m[i]) where m[i] is the mass of the displaced atom
Thus, these vectors are normalized but *not* orthogonal

                  0          1          2          3          4          5    
      0       0.000000   0.000000   0.000000   0.000000   0.000000   0.000000
      1       0.000000   0.000000   0.000000   0.000000   0.000000   0.000000
      2       0.000000   0.000000   0.000000   0.000000   0.000000   0.000000
      3       0.000000   0.000000   0.000000   0.000000   0.000000   0.000000
      4       0.000000   0.000000   0.000000   0.000000   0.000000   0.000000
      5       0.000000   0.000000   0.000000   0.000000   0.000000   0.000000
      6       0.000000   0.000000   0.000000   0.000000   0.000000   0.000000
      7       0.000000   0.000000   0.000000   0.000000   0.000000   0.000000
      8       0.000000   0.000000   0.000000   0.000000   0.000000   0.000000
      9       0.000000   0.000000   0.000000   0.000000   0.000000   0.000000
     10       0.000000   0.000000   0.000000   0.000000   0.000000   0.000000
     11       0.000000   0.000000   0.000000   0.000000   0.000000   0.000000
                  6          7          8          9         10         11    
      0      -0.000023  -0.000001   0.075952   0.000187   0.000217   0.089528
      1       0.000000   0.075938   0.000001   0.000000   0.089542  -0.000217
      2      -0.132049   0.000000  -0.000058   0.047817  -0.000000  -0.000084
      3       0.228790  -0.000002   0.150168   0.542949  -0.001818  -0.748916
      4      -0.000001  -0.753427  -0.000009  -0.000000   0.036353  -0.000088
      5       0.524429  -0.000004   0.269816  -0.189268   0.000772   0.318099
      6      -0.114260  -0.391244  -0.527599  -0.272587   0.339104  -0.159756
      7       0.198572  -0.075707  -0.391123   0.472277  -0.550835   0.339805
      8       0.524509   0.233412  -0.134561  -0.190253   0.274848  -0.159218
      9      -0.114259   0.391257  -0.527590  -0.272590  -0.339873  -0.158109
     10      -0.198572  -0.075716   0.391121  -0.472281  -0.552473  -0.337129
     11       0.524509  -0.233410  -0.134567  -0.190255  -0.275615  -0.157883


-----------
IR SPECTRUM
-----------

 Mode   freq       eps      Int      T**2         TX        TY        TZ
       cm**-1   L/(mol*cm) km/mol    a.u.
----------------------------------------------------------------------------
  6:   1244.29   0.002324   11.74  0.000583  ( 0.000132 -0.000000  0.024140)
  7:   1405.36   0.000765    3.87  0.000170  ( 0.000000 -0.013034 -0.000000)
  8:   1408.25   0.000755    3.81  0.000167  (-0.012933 -0.000000 -0.000092)
  9:   3061.76   0.000017    0.09  0.000002  ( 0.000033  0.000000  0.001322)
 10:   3136.63   0.005868   29.66  0.000584  ( 0.000058  0.024163  0.000000)
 11:   3136.71   0.005726   28.94  0.000570  ( 0.023868 -0.000059  0.000015)

* The epsilon (eps) is given for a Dirac delta lineshape.
** The dipole moment derivative (T) already includes vibrational overlap.

The first frequency considered to be a vibration is 6
The total number of vibrations considered is 6


--------------------------
THERMOCHEMISTRY AT 298.15K
--------------------------

Temperature         ... 298.15 K
Pressure            ... 1.00 atm
Total Mass          ... 15.03 AMU

Throughout the following assumptions are being made:
  (1) The electronic state is orbitally nondegenerate
      but the spin degeneracy is treated
  (2) There are no thermally accessible electronically excited states
  (3) Hindered rotations indicated by low frequency modes are not
      treated as such but are treated as vibrations and this may
      cause some error
  (4) All equations used are the standard statistical mechanics
      equations for an ideal gas
  (5) All vibrations are strictly harmonic

freq.    1244.29  E(vib)   ...       0.01 
freq.    1405.36  E(vib)   ...       0.00 
freq.    1408.25  E(vib)   ...       0.00 
freq.    3061.76  E(vib)   ...       0.00 
freq.    3136.63  E(vib)   ...       0.00 
freq.    3136.71  E(vib)   ...       0.00 

------------
INNER ENERGY
------------

The inner energy is: U= E(el) + E(ZPE) + E(vib) + E(rot) + E(trans)
    E(el)   - is the total energy from the electronic structure calculation
              = E(kin-el) + E(nuc-el) + E(el-el) + E(nuc-nuc)
    E(ZPE)  - the the zero temperature vibrational energy from the frequency calculation
    E(vib)  - the the finite temperature correction to E(ZPE) due to population
              of excited vibrational states
    E(rot)  - is the rotational thermal energy
    E(trans)- is the translational thermal energy

Summary of contributions to the inner energy U:
Electronic energy                ...    -39.81917162 Eh
Zero point energy                ...      0.03051148 Eh      19.15 kcal/mol
Thermal vibrational correction   ...      0.00002850 Eh       0.02 kcal/mol
Thermal rotational correction    ...      0.00141627 Eh       0.89 kcal/mol
Thermal translational correction ...      0.00141627 Eh       0.89 kcal/mol
-----------------------------------------------------------------------
Total thermal energy                    -39.78579910 Eh


Summary of corrections to the electronic energy:
(perhaps to be used in another calculation)
Total thermal correction                  0.00286104 Eh       1.80 kcal/mol
Non-thermal (ZPE) correction              0.03051148 Eh      19.15 kcal/mol
-----------------------------------------------------------------------
Total correction                          0.03337252 Eh      20.94 kcal/mol


--------
ENTHALPY
--------

The enthalpy is H = U + kB*T
                kB is Boltzmann's constant
Total free energy                 ...    -39.78579910 Eh 
Thermal Enthalpy correction       ...      0.00094421 Eh       0.59 kcal/mol
-----------------------------------------------------------------------
Total Enthalpy                    ...    -39.78485489 Eh


Note: Rotational entropy computed according to Herzberg 
Infrared and Raman Spectra, Chapter V,1, Van Nostrand Reinhold, 1945 
Point Group:  C3v, Symmetry Number:   3  
Rotational constants in cm-1:     8.479788     8.479278     5.592104 

Vibrational entropy computed according to the QRRHO of S. Grimme
Chem.Eur.J. 2012 18 9955


-------
ENTROPY
-------

The entropy contributions are T*S = T*(S(el)+S(vib)+S(rot)+S(trans))
     S(el)   - electronic entropy
     S(vib)  - vibrational entropy
     S(rot)  - rotational entropy
     S(trans)- translational entropy
The entropies will be listed as multiplied by the temperature to get
units of energy

Electronic entropy                ...      0.00065446 Eh      0.41 kcal/mol
Vibrational entropy               ...      0.00003297 Eh      0.02 kcal/mol
Rotational entropy                ...      0.00564255 Eh      3.54 kcal/mol
Translational entropy             ...      0.01618771 Eh     10.16 kcal/mol
-----------------------------------------------------------------------
Final entropy term                ...      0.02251768 Eh     14.13 kcal/mol

In case the symmetry of your molecule has not been determined correctly
or in case you have a reason to use a different symmetry number we print 
out the resulting rotational entropy values for sn=1,12 :
 --------------------------------------------------------
|  sn= 1 | S(rot)=       0.00667984 Eh      4.19 kcal/mol|
|  sn= 2 | S(rot)=       0.00602538 Eh      3.78 kcal/mol|
|  sn= 3 | S(rot)=       0.00564255 Eh      3.54 kcal/mol|
|  sn= 4 | S(rot)=       0.00537093 Eh      3.37 kcal/mol|
|  sn= 5 | S(rot)=       0.00516024 Eh      3.24 kcal/mol|
|  sn= 6 | S(rot)=       0.00498810 Eh      3.13 kcal/mol|
|  sn= 7 | S(rot)=       0.00484255 Eh      3.04 kcal/mol|
|  sn= 8 | S(rot)=       0.00471647 Eh      2.96 kcal/mol|
|  sn= 9 | S(rot)=       0.00460526 Eh      2.89 kcal/mol|
|  sn=10 | S(rot)=       0.00450578 Eh      2.83 kcal/mol|
|  sn=11 | S(rot)=       0.00441579 Eh      2.77 kcal/mol|
|  sn=12 | S(rot)=       0.00433364 Eh      2.72 kcal/mol|
 --------------------------------------------------------


-------------------
GIBBS FREE ENERGY
-------------------

The Gibbs free energy is G = H - T*S

Total enthalpy                    ...    -39.78485489 Eh 
Total entropy correction          ...     -0.02251768 Eh    -14.13 kcal/mol
-----------------------------------------------------------------------
Final Gibbs free energy         ...    -39.80737258 Eh

For completeness - the Gibbs free energy minus the electronic energy
G-E(el)                           ...      0.01179905 Eh      7.40 kcal/mol


Timings for individual modules:

Sum of individual times         ...       47.824 sec (=   0.797 min)
GTO integral calculation        ...        7.717 sec (=   0.129 min)  16.1 %
SCF iterations                  ...       25.416 sec (=   0.424 min)  53.1 %
SCF Gradient evaluation         ...        6.154 sec (=   0.103 min)  12.9 %
Geometry relaxation             ...        0.132 sec (=   0.002 min)   0.3 %
Analytical frequency calculation...        8.406 sec (=   0.140 min)  17.6 %
                             ****ORCA TERMINATED NORMALLY****
TOTAL RUN TIME: 0 days 0 hours 0 minutes 54 seconds 850 msec

slurmID:    32260100
totalRuntime[s]:    54.907545938
