
                                 *****************
                                 * O   R   C   A *
                                 *****************

                                            #,                                       
                                            ###                                      
                                            ####                                     
                                            #####                                    
                                            ######                                   
                                           ########,                                 
                                     ,,################,,,,,                         
                               ,,#################################,,                 
                          ,,##########################################,,             
                       ,#########################################, ''#####,          
                    ,#############################################,,   '####,        
                  ,##################################################,,,,####,       
                ,###########''''           ''''###############################       
              ,#####''   ,,,,##########,,,,          '''####'''          '####       
            ,##' ,,,,###########################,,,                        '##       
           ' ,,###''''                  '''############,,,                           
         ,,##''                                '''############,,,,        ,,,,,,###''
      ,#''                                            '''#######################'''  
     '                                                          ''''####''''         
             ,#######,   #######,   ,#######,      ##                                
            ,#'     '#,  ##    ##  ,#'     '#,    #''#        ######   ,####,        
            ##       ##  ##   ,#'  ##            #'  '#       #        #'  '#        
            ##       ##  #######   ##           ,######,      #####,   #    #        
            '#,     ,#'  ##    ##  '#,     ,#' ,#      #,         ##   #,  ,#        
             '#######'   ##     ##  '#######'  #'      '#     #####' # '####'        



                  #######################################################
                  #                        -***-                        #
                  #          Department of theory and spectroscopy      #
                  #    Directorship and core code : Frank Neese         #
                  #        Max Planck Institute fuer Kohlenforschung    #
                  #                Kaiser Wilhelm Platz 1               #
                  #                 D-45470 Muelheim/Ruhr               #
                  #                      Germany                        #
                  #                                                     #
                  #                  All rights reserved                #
                  #                        -***-                        #
                  #######################################################


                         Program Version 5.0.4 -  RELEASE  -


 With contributions from (in alphabetic order):
   Daniel Aravena         : Magnetic Suceptibility
   Michael Atanasov       : Ab Initio Ligand Field Theory (pilot matlab implementation)
   Alexander A. Auer      : GIAO ZORA, VPT2 properties, NMR spectrum
   Ute Becker             : Parallelization
   Giovanni Bistoni       : ED, misc. LED, open-shell LED, HFLD
   Martin Brehm           : Molecular dynamics
   Dmytro Bykov           : SCF Hessian
   Vijay G. Chilkuri      : MRCI spin determinant printing, contributions to CSF-ICE
   Dipayan Datta          : RHF DLPNO-CCSD density
   Achintya Kumar Dutta   : EOM-CC, STEOM-CC
   Dmitry Ganyushin       : Spin-Orbit,Spin-Spin,Magnetic field MRCI
   Miquel Garcia          : C-PCM and meta-GGA Hessian, CC/C-PCM, Gaussian charge scheme
   Yang Guo               : DLPNO-NEVPT2, F12-NEVPT2, CIM, IAO-localization
   Andreas Hansen         : Spin unrestricted coupled pair/coupled cluster methods
   Benjamin Helmich-Paris : MC-RPA, TRAH-SCF, COSX integrals
   Lee Huntington         : MR-EOM, pCC
   Robert Izsak           : Overlap fitted RIJCOSX, COSX-SCS-MP3, EOM
   Marcus Kettner         : VPT2
   Christian Kollmar      : KDIIS, OOCD, Brueckner-CCSD(T), CCSD density, CASPT2, CASPT2-K
   Simone Kossmann        : Meta GGA functionals, TD-DFT gradient, OOMP2, MP2 Hessian
   Martin Krupicka        : Initial AUTO-CI
   Lucas Lang             : DCDCAS
   Marvin Lechner         : AUTO-CI (C++ implementation), FIC-MRCC
   Dagmar Lenk            : GEPOL surface, SMD
   Dimitrios Liakos       : Extrapolation schemes; Compound Job, initial MDCI parallelization
   Dimitrios Manganas     : Further ROCIS development; embedding schemes
   Dimitrios Pantazis     : SARC Basis sets
   Anastasios Papadopoulos: AUTO-CI, single reference methods and gradients
   Taras Petrenko         : DFT Hessian,TD-DFT gradient, ASA, ECA, R-Raman, ABS, FL, XAS/XES, NRVS
   Peter Pinski           : DLPNO-MP2, DLPNO-MP2 Gradient
   Christoph Reimann      : Effective Core Potentials
   Marius Retegan         : Local ZFS, SOC
   Christoph Riplinger    : Optimizer, TS searches, QM/MM, DLPNO-CCSD(T), (RO)-DLPNO pert. Triples
   Tobias Risthaus        : Range-separated hybrids, TD-DFT gradient, RPA, STAB
   Michael Roemelt        : Original ROCIS implementation
   Masaaki Saitow         : Open-shell DLPNO-CCSD energy and density
   Barbara Sandhoefer     : DKH picture change effects
   Avijit Sen             : IP-ROCIS
   Kantharuban Sivalingam : CASSCF convergence, NEVPT2, FIC-MRCI
   Bernardo de Souza      : ESD, SOC TD-DFT
   Georgi Stoychev        : AutoAux, RI-MP2 NMR, DLPNO-MP2 response
   Willem Van den Heuvel  : Paramagnetic NMR
   Boris Wezisla          : Elementary symmetry handling
   Frank Wennmohs         : Technical directorship


 We gratefully acknowledge several colleagues who have allowed us to
 interface, adapt or use parts of their codes:
   Stefan Grimme, W. Hujo, H. Kruse, P. Pracht,  : VdW corrections, initial TS optimization,
                  C. Bannwarth, S. Ehlert          DFT functionals, gCP, sTDA/sTD-DF
   Ed Valeev, F. Pavosevic, A. Kumar             : LibInt (2-el integral package), F12 methods
   Garnet Chan, S. Sharma, J. Yang, R. Olivares  : DMRG
   Ulf Ekstrom                                   : XCFun DFT Library
   Mihaly Kallay                                 : mrcc  (arbitrary order and MRCC methods)
   Jiri Pittner, Ondrej Demel                    : Mk-CCSD
   Frank Weinhold                                : gennbo (NPA and NBO analysis)
   Christopher J. Cramer and Donald G. Truhlar   : smd solvation model
   Lars Goerigk                                  : TD-DFT with DH, B97 family of functionals
   V. Asgeirsson, H. Jonsson                     : NEB implementation
   FAccTs GmbH                                   : IRC, NEB, NEB-TS, DLPNO-Multilevel, CI-OPT
                                                   MM, QMMM, 2- and 3-layer-ONIOM, Crystal-QMMM,
                                                   LR-CPCM, SF, NACMEs, symmetry and pop. for TD-DFT,
                                                   nearIR, NL-DFT gradient (VV10), updates on ESD,
                                                   ML-optimized integration grids
   S Lehtola, MJT Oliveira, MAL Marques          : LibXC Library
   Liviu Ungur et al                             : ANISO software


 Your calculation uses the libint2 library for the computation of 2-el integrals
 For citations please refer to: http://libint.valeyev.net

 Your ORCA version has been built with support for libXC version: 5.1.0
 For citations please refer to: https://tddft.org/programs/libxc/

 This ORCA versions uses:
   CBLAS   interface :  Fast vector & matrix operations
   LAPACKE interface :  Fast linear algebra routines
   SCALAPACK package :  Parallel linear algebra routines
   Shared memory     :  Shared parallel matrices
   BLAS/LAPACK       :  OpenBLAS 0.3.15  USE64BITINT DYNAMIC_ARCH NO_AFFINITY SkylakeX SINGLE_THREADED
        Core in use  :  SkylakeX
   Copyright (c) 2011-2014, The OpenBLAS Project


Your calculation utilizes the atom-pairwise dispersion correction
with the zero-damping scheme (D30)
Cite in your paper:
S.Grimme, J.Antony, S.Ehrlich and H.Krieg, J.Chem.Phys., 132, (2010), 154104 
   

XCFun DFT library Copyright 2009-2010 Ulf Ekstrom and contributors.
See http://admol.org/xcfun for more information.
This is free software; see the source code for copying conditions.
There is ABSOLUTELY NO WARRANTY; not even for MERCHANTABILITY or FITNESS FOR A PARTICULAR PURPOSE.
For details see the documentation.
Scientific users of this library should cite U. Ekstrom, L. Visscher, R. Bast, A. J. Thorvaldsen and K. Ruud;
J.Chem.Theor.Comp. 2010, DOI: 10.1021/ct100117s
XCFun Version 0.99 

================================================================================

----- Orbital basis set information -----
Your calculation utilizes the basis: def2-TZVPD
   F. Weigend and R. Ahlrichs, Phys. Chem. Chem. Phys. 7, 3297 (2005).
   D. Rappoport and F. Furche, J. Chem. Phys. 133 134105 (2010).

----- AuxJ basis set information -----
Your calculation utilizes the auxiliary basis: def2/J
   F. Weigend, Phys. Chem. Chem. Phys. 8, 1057 (2006).

================================================================================
                                        WARNINGS
                       Please study these warnings very carefully!
================================================================================


WARNING: Geometry Optimization
  ===> : Switching off AutoStart
         For restart on a previous wavefunction, please use MOREAD

INFO   : the flag for use of the SHARK integral package has been found!

================================================================================
                                       INPUT FILE
================================================================================
NAME = /beegfs/scratch/ispackman/PFAS_EPR_calcs/benchmark/JChemEd_CF3_radical/CH3_radical_105.0_degrees_IN-PROGRESS/CH3_radical_105.0_degrees.inp
|  1> ! UKS TightSCF wB97x-D3 def2-TZVPD xyzfile opt freq
|  2> 
|  3> # CH3 radical 105.0 degrees fixed
|  4> 
|  5> %maxcore 1000
|  6> %pal
|  7> nprocs 18
|  8> end
|  9> 
| 10> %geom Constraints
| 11>         { A * 0 * C }
| 12>     end
| 13> end
| 14> * xyz 0 2
| 15> C 0.00 0.00 0.00
| 16> H 0.9893723715 0.0000000000 -0.4330615551
| 17> H -0.4946861857 0.8568216075 -0.4330615551
| 18> H -0.4946861857 -0.8568216075 -0.4330615551
| 19> **                         ****END OF INPUT****
================================================================================

                       *****************************
                       * Geometry Optimization Run *
                       *****************************

Geometry optimization settings:
Update method            Update   .... BFGS
Choice of coordinates    CoordSys .... Z-matrix Internals
Initial Hessian          InHess   .... Almoef's Model

Convergence Tolerances:
Energy Change            TolE     ....  5.0000e-06 Eh
Max. Gradient            TolMAXG  ....  3.0000e-04 Eh/bohr
RMS Gradient             TolRMSG  ....  1.0000e-04 Eh/bohr
Max. Displacement        TolMAXD  ....  4.0000e-03 bohr
RMS Displacement         TolRMSD  ....  2.0000e-03 bohr
Strict Convergence                ....  False
------------------------------------------------------------------------------
                        ORCA OPTIMIZATION COORDINATE SETUP
------------------------------------------------------------------------------

The optimization will be done in new redundant internal coordinates
Making redundant internal coordinates   ...  (new redundants) done
Evaluating the initial hessian          ...  (Almloef) done
Evaluating the coordinates              ...  done
Calculating the B-matrix                .... done
Calculating the G-matrix                .... done
Diagonalizing the G-matrix              .... done
Imposing constraints:
 Iter   0:  RMS(Cart)=    0.0000000000 RMS(Int)=    0.0000000000
CONVERGED
Will constrain atom 0 coordinate 1 
Will constrain atom 0 coordinate 2 
Will constrain atom 1 coordinate 2 
The first mode is                       ....    1
The number of degrees of freedom        ....    6
Storing new coordinates                 .... done

    -----------------------------------------------------------------
                    Redundant Internal Coordinates


    -----------------------------------------------------------------
         Definition                    Initial Value    Approx d2E/dq
    -----------------------------------------------------------------
      1. B(H   1,C   0)                  1.0800         0.373575   
      2. B(H   2,C   0)                  1.0800         0.373575   
      3. B(H   3,C   0)                  1.0800         0.373575   
      4. A(H   2,C   0,H   3)          105.0000         0.294224 C 
      5. A(H   1,C   0,H   2)          105.0000         0.294224 C 
      6. A(H   1,C   0,H   3)          105.0000         0.294224 C 
      7. I(H   1,H   3,H   2,C   0)     64.8394         0.003170   
    -----------------------------------------------------------------

Number of atoms                         .... 4
Number of degrees of freedom            .... 7

         *************************************************************
         *                GEOMETRY OPTIMIZATION CYCLE   1            *
         *************************************************************
---------------------------------
CARTESIAN COORDINATES (ANGSTROEM)
---------------------------------
  C      0.000000    0.000000    0.000000
  H      0.989372    0.000000   -0.433062
  H     -0.494686    0.856822   -0.433062
  H     -0.494686   -0.856822   -0.433062

----------------------------
CARTESIAN COORDINATES (A.U.)
----------------------------
  NO LB      ZA    FRAG     MASS         X           Y           Z
   0 C     6.0000    0    12.011    0.000000    0.000000    0.000000
   1 H     1.0000    0     1.008    1.869643    0.000000   -0.818368
   2 H     1.0000    0     1.008   -0.934821    1.619158   -0.818368
   3 H     1.0000    0     1.008   -0.934821   -1.619158   -0.818368

--------------------------------
INTERNAL COORDINATES (ANGSTROEM)
--------------------------------
 C      0   0   0     0.000000000000     0.00000000     0.00000000
 H      1   0   0     1.079999999997     0.00000000     0.00000000
 H      1   2   0     1.079999999957   105.00000000     0.00000000
 H      1   2   3     1.079999999957   105.00000000   110.43828045

---------------------------
INTERNAL COORDINATES (A.U.)
---------------------------
 C      0   0   0     0.000000000000     0.00000000     0.00000000
 H      1   0   0     2.040904224629     0.00000000     0.00000000
 H      1   2   0     2.040904224554   105.00000000     0.00000000
 H      1   2   3     2.040904224554   105.00000000   110.43828045

---------------------
BASIS SET INFORMATION
---------------------
There are 2 groups of distinct atoms

 Group   1 Type C   : 12s6p3d1f contracted to 6s3p3d1f pattern {621111/411/111/1}
 Group   2 Type H   : 5s2p contracted to 3s2p pattern {311/11}

Atom   0C    basis set group =>   1
Atom   1H    basis set group =>   2
Atom   2H    basis set group =>   2
Atom   3H    basis set group =>   2
---------------------------------
AUXILIARY/J BASIS SET INFORMATION
---------------------------------
There are 2 groups of distinct atoms

 Group   1 Type C   : 12s5p4d2f1g contracted to 6s4p3d1f1g pattern {711111/2111/211/2/1}
 Group   2 Type H   : 5s2p1d contracted to 3s1p1d pattern {311/2/1}

Atom   0C    basis set group =>   1
Atom   1H    basis set group =>   2
Atom   2H    basis set group =>   2
Atom   3H    basis set group =>   2


           ************************************************************
           *        Program running with 18 parallel MPI-processes    *
           *              working on a common directory               *
           ************************************************************
------------------------------------------------------------------------------
                           ORCA GTO INTEGRAL CALCULATION
                           -- RI-GTO INTEGRALS CHOSEN --
------------------------------------------------------------------------------
------------------------------------------------------------------------------
                   ___                                                        
                  /   \      - P O W E R E D   B Y -                         
                 /     \                                                     
                 |  |  |   _    _      __       _____    __    __             
                 |  |  |  | |  | |    /  \     |  _  \  |  |  /  |          
                  \  \/   | |  | |   /    \    | | | |  |  | /  /          
                 / \  \   | |__| |  /  /\  \   | |_| |  |  |/  /          
                |  |  |   |  __  | /  /__\  \  |    /   |      \           
                |  |  |   | |  | | |   __   |  |    \   |  |\   \          
                \     /   | |  | | |  |  |  |  | |\  \  |  | \   \       
                 \___/    |_|  |_| |__|  |__|  |_| \__\ |__|  \__/        
                                                                              
                      - O R C A' S   B I G   F R I E N D -                    
                                      &                                       
                       - I N T E G R A L  F E E D E R -                       
                                                                              
 v1 FN, 2020, v2 2021                                                         
------------------------------------------------------------------------------


Reading SHARK input file /beegfs/scratch/ispackman/PFAS_EPR_calcs/benchmark/JChemEd_CF3_radical/CH3_radical_105.0_degrees_IN-PROGRESS/CH3_radical_105.0_degrees.SHARKINP.tmp ... ok
----------------------
SHARK INTEGRAL PACKAGE
----------------------

Number of atoms                             ...      4
Number of basis functions                   ...     64
Number of shells                            ...     28
Maximum angular momentum                    ...      3
Integral batch strategy                     ... SHARK/LIBINT Hybrid
RI-J (if used) integral strategy            ... SPLIT-RIJ (Revised 2003 algorithm where possible)
Printlevel                                  ...      1
Contraction scheme used                     ... SEGMENTED contraction
Coulomb Range Separation                    ... NOT USED
Exchange Range Separation                   ... Long Range
   Mu parameter                             ...  0.250000
   Scaling (regular/separated)              ...  0.195728  0.804272
Finite Nucleus Model                        ... NOT USED
Auxiliary Coulomb fitting basis             ... AVAILABLE
   # of basis functions in Aux-J            ...     82
   # of shells in Aux-J                     ...     30
   Maximum angular momentum in Aux-J        ...      4
Auxiliary J/K fitting basis                 ... NOT available
Auxiliary Correlation fitting basis         ... NOT available
Auxiliary 'external' fitting basis          ... NOT available
Integral threshold                          ...     2.500000e-11
Primitive cut-off                           ...     2.500000e-12
Primitive pair pre-selection threshold      ...     2.500000e-12

Calculating pre-screening integrals         ... done (  0.0 sec) Dimension = 28
Organizing shell pair data                  ... done (  0.0 sec)
Shell pair information
Total number of shell pairs                 ...       406
Shell pairs after pre-screening             ...       406
Total number of primitive shell pairs       ...       977
Primitive shell pairs kept                  ...       947
          la=0 lb=0:    120 shell pairs
          la=1 lb=0:    135 shell pairs
          la=1 lb=1:     45 shell pairs
          la=2 lb=0:     45 shell pairs
          la=2 lb=1:     27 shell pairs
          la=2 lb=2:      6 shell pairs
          la=3 lb=0:     15 shell pairs
          la=3 lb=1:      9 shell pairs
          la=3 lb=2:      3 shell pairs
          la=3 lb=3:      1 shell pairs

Calculating one electron integrals          ... done (  0.0 sec)
Calculating RI/J V-Matrix + Cholesky decomp.... done (  0.2 sec)
Calculating Nuclear repulsion               ... done (  0.0 sec) ENN=      9.746027462464 Eh

SHARK setup successfully completed in   0.7 seconds

Maximum memory used throughout the entire GTOINT-calculation: 14.0 MB


           ************************************************************
           *        Program running with 18 parallel MPI-processes    *
           *              working on a common directory               *
           ************************************************************
-------------------------------------------------------------------------------
                                 ORCA SCF
-------------------------------------------------------------------------------

------------
SCF SETTINGS
------------
Hamiltonian:
 Density Functional     Method          .... DFT(GTOs)
 Exchange Functional    Exchange        .... WB97X-D3
 Correlation Functional Correlation     .... WB97X-D3
 Gradients option       PostSCFGGA      .... off
 Hybrid DFT is turned on
   Fraction HF Exchange ScalHFX         ....  0.195728
   Scaling of DF-GGA-X  ScalDFX         ....  0.000000
   Scaling of DF-GGA-C  ScalDFC         ....  1.000000
   Scaling of DF-LDA-C  ScalLDAC        ....  1.000000
   Perturbative correction              ....  0.000000
   Density functional embedding theory  .... OFF
 Long-range corrected/Screened/Range-Separated Hybrid DFT is turned on
   Amount of maximum screened exact exchange              ....  0.804272
   Range separation parameter mu (erf(mu*r12)/r12)        ....  0.250000
 RI-approximation to the Coulomb term is turned on
   Number of AuxJ basis functions       .... 82
   RIJ-COSX (HFX calculated with COS-X)).... on


General Settings:
 Integral files         IntName         .... /beegfs/scratch/ispackman/PFAS_EPR_calcs/benchmark/JChemEd_CF3_radical/CH3_radical_105.0_degrees_IN-PROGRESS/CH3_radical_105.0_degrees
 Hartree-Fock type      HFTyp           .... UHF
 Total Charge           Charge          ....    0
 Multiplicity           Mult            ....    2
 Number of Electrons    NEL             ....    9
 Basis Dimension        Dim             ....   64
 Nuclear Repulsion      ENuc            ....      9.7460274625 Eh

Convergence Acceleration:
 DIIS                   CNVDIIS         .... on
   Start iteration      DIISMaxIt       ....    12
   Startup error        DIISStart       ....  0.200000
   # of expansion vecs  DIISMaxEq       ....     5
   Bias factor          DIISBfac        ....   1.050
   Max. coefficient     DIISMaxC        ....  10.000
 Trust-Rad. Augm. Hess. CNVTRAH         .... auto
   Auto Start mean grad. ratio tolernc. ....  1.125000
   Auto Start start iteration           ....    20
   Auto Start num. interpolation iter.  ....    10
   Max. Number of Micro iterations      ....    16
   Max. Number of Macro iterations      .... Maxiter - #DIIS iter
   Number of Davidson start vectors     ....     2
   Converg. threshold I  (grad. norm)   ....   1.000e-05
   Converg. threshold II (energy diff.) ....   1.000e-08
   Grad. Scal. Fac. for Micro threshold ....   0.100
   Minimum threshold for Micro iter.    ....   0.010
   NR start threshold (gradient norm)   ....   0.001
   Initial trust radius                 ....   0.400
   Minimum AH scaling param. (alpha)    ....   1.000
   Maximum AH scaling param. (alpha)    .... 1000.000
   Orbital update algorithm             .... Taylor
   White noise on init. David. guess    .... on
   Maximum white noise                  ....   0.010
   Quad. conv. algorithm                .... NR
 SOSCF                  CNVSOSCF        .... off
 Level Shifting         CNVShift        .... on
   Level shift para.    LevelShift      ....    0.2500
   Turn off err/grad.   ShiftErr        ....    0.0010
 Zerner damping         CNVZerner       .... off
 Static damping         CNVDamp         .... on
   Fraction old density DampFac         ....    0.7000
   Max. Damping (<1)    DampMax         ....    0.9800
   Min. Damping (>=0)   DampMin         ....    0.0000
   Turn off err/grad.   DampErr         ....    0.1000
 Fernandez-Rico         CNVRico         .... off

SCF Procedure:
 Maximum # iterations   MaxIter         ....   125
 SCF integral mode      SCFMode         .... Direct
   Integral package                     .... SHARK and LIBINT hybrid scheme
 Reset frequency        DirectResetFreq ....    20
 Integral Threshold     Thresh          ....  2.500e-11 Eh
 Primitive CutOff       TCut            ....  2.500e-12 Eh

Convergence Tolerance:
 Convergence Check Mode ConvCheckMode   .... Total+1el-Energy
 Convergence forced     ConvForced      .... 0
 Energy Change          TolE            ....  1.000e-08 Eh
 1-El. energy change                    ....  1.000e-05 Eh
 DIIS Error             TolErr          ....  5.000e-07


Diagonalization of the overlap matrix:
Smallest eigenvalue                        ... 4.600e-05
Time for diagonalization                   ...    0.002 sec
Threshold for overlap eigenvalues          ... 1.000e-08
Number of eigenvalues below threshold      ... 0
Time for construction of square roots      ...    0.087 sec
Total time needed                          ...    0.089 sec

Time for model grid setup =    0.092 sec

------------------------------
INITIAL GUESS: MODEL POTENTIAL
------------------------------
Loading Hartree-Fock densities                     ... done
Calculating cut-offs                               ... done
Initializing the effective Hamiltonian             ... done
Setting up the integral package (SHARK)            ... done
Starting the Coulomb interaction                   ... done (   0.2 sec)
Reading the grid                                   ... done
Mapping shells                                     ... done
Starting the XC term evaluation                    ... done (   0.0 sec)
  promolecular density results
     # of electrons  =      8.997930549
     EX              =     -5.935279377
     EC              =     -0.259881646
     EX+EC           =     -6.195161023
Transforming the Hamiltonian                       ... done (   0.0 sec)
Diagonalizing the Hamiltonian                      ... done (   0.0 sec)
Back transforming the eigenvectors                 ... done (   0.0 sec)
Now organizing SCF variables                       ... done
                      ------------------
                      INITIAL GUESS DONE (   0.3 sec)
                      ------------------
-------------------
DFT GRID GENERATION
-------------------

General Integration Accuracy     IntAcc      ... 4.388
Radial Grid Type                 RadialGrid  ... OptM3 with GC (2021)
Angular Grid (max. ang.)         AngularGrid ... 4 (Lebedev-302)
Angular grid pruning method      GridPruning ... 4 (adaptive)
Weight generation scheme         WeightScheme... Becke
Basis function cutoff            BFCut       ... 1.0000e-11
Integration weight cutoff        WCut        ... 1.0000e-14
Angular grids for H and He will be reduced by one unit
Partially contracted basis set               ... off
Rotationally invariant grid construction     ... off

Total number of grid points                  ...    17045
Total number of batches                      ...      268
Average number of points per batch           ...       63
Average number of grid points per atom       ...     4261
Time for grid setup =    0.172 sec

--------------------
COSX GRID GENERATION
--------------------

GRIDX 1
-------
General Integration Accuracy     IntAcc      ... 3.816
Radial Grid Type                 RadialGrid  ... OptM3 with GC (2021)
Angular Grid (max. ang.)         AngularGrid ... 1 (Lebedev-50)
Angular grid pruning method      GridPruning ... 4 (adaptive)
Weight generation scheme         WeightScheme... Becke
Basis function cutoff            BFCut       ... 1.0000e-11
Integration weight cutoff        WCut        ... 1.0000e-14
Angular grids for H and He will be reduced by one unit
Partially contracted basis set               ... on
Rotationally invariant grid construction     ... off

Total number of grid points                  ...     2149
Total number of batches                      ...       36
Average number of points per batch           ...       59
Average number of grid points per atom       ...      537
UseSFitting                                  ... on

GRIDX 2
-------
General Integration Accuracy     IntAcc      ... 4.020
Radial Grid Type                 RadialGrid  ... OptM3 with GC (2021)
Angular Grid (max. ang.)         AngularGrid ... 2 (Lebedev-110)
Angular grid pruning method      GridPruning ... 4 (adaptive)
Weight generation scheme         WeightScheme... Becke
Basis function cutoff            BFCut       ... 1.0000e-11
Integration weight cutoff        WCut        ... 1.0000e-14
Angular grids for H and He will be reduced by one unit
Partially contracted basis set               ... on
Rotationally invariant grid construction     ... off

Total number of grid points                  ...     5035
Total number of batches                      ...       80
Average number of points per batch           ...       62
Average number of grid points per atom       ...     1259
UseSFitting                                  ... on

GRIDX 3
-------
General Integration Accuracy     IntAcc      ... 4.338
Radial Grid Type                 RadialGrid  ... OptM3 with GC (2021)
Angular Grid (max. ang.)         AngularGrid ... 3 (Lebedev-194)
Angular grid pruning method      GridPruning ... 4 (adaptive)
Weight generation scheme         WeightScheme... Becke
Basis function cutoff            BFCut       ... 1.0000e-11
Integration weight cutoff        WCut        ... 1.0000e-14
Angular grids for H and He will be reduced by one unit
Partially contracted basis set               ... on
Rotationally invariant grid construction     ... off

Total number of grid points                  ...    11704
Total number of batches                      ...      184
Average number of points per batch           ...       63
Average number of grid points per atom       ...     2926
UseSFitting                                  ... on

Time for X-Grid setup             =    0.609 sec

--------------
SCF ITERATIONS
--------------
ITER       Energy         Delta-E        Max-DP      RMS-DP      [F,P]     Damp
               ***  Starting incremental Fock matrix formation  ***
  0    -39.7834423404   0.000000000000 0.05310696  0.00109577  0.0767443 0.7000
  1    -39.7971277532  -0.013685412861 0.05062729  0.00097381  0.0491995 0.7000
                               ***Turning on DIIS***
  2    -39.8048581986  -0.007730445381 0.11184252  0.00217031  0.0283691 0.0000
  3    -39.8182207270  -0.013362528409 0.03214597  0.00063688  0.0193263 0.0000
  4    -39.8197685058  -0.001547778794 0.01180767  0.00020631  0.0033985 0.0000
  5    -39.8198349732  -0.000066467408 0.01022328  0.00017192  0.0016113 0.0000
  6    -39.8198561922  -0.000021219019 0.01059997  0.00017313  0.0006243 0.0000
               *** Restarting incremental Fock matrix formation ***
                                   *** Resetting DIIS ***
  7    -39.8198683801  -0.000012187915 0.00121348  0.00001959  0.0000813 0.0000
  8    -39.8198685146  -0.000000134479 0.00065099  0.00001064  0.0000347 0.0000
  9    -39.8198685532  -0.000000038622 0.00002020  0.00000076  0.0000139 0.0000
 10    -39.8198685552  -0.000000001979 0.00000681  0.00000023  0.0000054 0.0000
                 **** Energy Check signals convergence ****

               *****************************************************
               *                     SUCCESS                       *
               *           SCF CONVERGED AFTER  11 CYCLES          *
               *****************************************************

Old exchange energy                            =     -2.173813420 Eh
New exchange energy                            =     -2.173817131 Eh
Exchange energy change after final integration =     -0.000003712 Eh
Total energy after final integration           =    -39.819872267 Eh
Final COS-X integration done in                =     0.150 sec

----------------
TOTAL SCF ENERGY
----------------

Total Energy       :          -39.81987227 Eh           -1083.55381 eV

Components:
Nuclear Repulsion  :            9.74602746 Eh             265.20289 eV
Electronic Energy  :          -49.56589973 Eh           -1348.75670 eV
One Electron Energy:          -71.75576372 Eh           -1952.57360 eV
Two Electron Energy:           22.18986399 Eh             603.81690 eV
Max COSX asymmetry :            0.00000020 Eh               0.00001 eV

Virial components:
Potential Energy   :          -79.48054798 Eh           -2162.77566 eV
Kinetic Energy     :           39.66067571 Eh            1079.22185 eV
Virial Ratio       :            2.00401396


DFT components:
N(Alpha)           :        4.999998349696 electrons
N(Beta)            :        4.000000649925 electrons
N(Total)           :        8.999998999621 electrons
E(XC)              :       -4.316374832936 Eh       
DFET-embed. en.    :        0.000000000000 Eh       

---------------
SCF CONVERGENCE
---------------

  Last Energy change         ...   -1.6577e-11  Tolerance :   1.0000e-08
  Last MAX-Density change    ...    0.0000e+00  Tolerance :   1.0000e-07
  Last RMS-Density change    ...    0.0000e+00  Tolerance :   5.0000e-09
  Last DIIS Error            ...    1.2805e-06  Tolerance :   5.0000e-07

             **** THE GBW FILE WAS UPDATED (/beegfs/scratch/ispackman/PFAS_EPR_calcs/benchmark/JChemEd_CF3_radical/CH3_radical_105.0_degrees_IN-PROGRESS/CH3_radical_105.0_degrees.gbw) ****
             **** DENSITY /beegfs/scratch/ispackman/PFAS_EPR_calcs/benchmark/JChemEd_CF3_radical/CH3_radical_105.0_degrees_IN-PROGRESS/CH3_radical_105.0_degrees.scfp WAS UPDATED ****
             **** ENERGY FILE WAS UPDATED (/beegfs/scratch/ispackman/PFAS_EPR_calcs/benchmark/JChemEd_CF3_radical/CH3_radical_105.0_degrees_IN-PROGRESS/CH3_radical_105.0_degrees.en.tmp) ****
----------------------
UHF SPIN CONTAMINATION
----------------------

Warning: in a DFT calculation there is little theoretical justification to 
         calculate <S**2> as in Hartree-Fock theory. We will do it anyways
         but you should keep in mind that the values have only limited relevance

Expectation value of <S**2>     :     0.752941
Ideal value S*(S+1) for S=0.5   :     0.750000
Deviation                       :     0.002941

             **** THE GBW FILE WAS UPDATED (/beegfs/scratch/ispackman/PFAS_EPR_calcs/benchmark/JChemEd_CF3_radical/CH3_radical_105.0_degrees_IN-PROGRESS/CH3_radical_105.0_degrees.gbw) ****
             **** DENSITY /beegfs/scratch/ispackman/PFAS_EPR_calcs/benchmark/JChemEd_CF3_radical/CH3_radical_105.0_degrees_IN-PROGRESS/CH3_radical_105.0_degrees.scfp WAS UPDATED ****
----------------
ORBITAL ENERGIES
----------------
                 SPIN UP ORBITALS
  NO   OCC          E(Eh)            E(eV) 
   0   1.0000     -10.292468      -280.0723 
   1   1.0000      -0.814904       -22.1747 
   2   1.0000      -0.502013       -13.6605 
   3   1.0000      -0.501982       -13.6596 
   4   1.0000      -0.372228       -10.1288 
   5   0.0000       0.075799         2.0626 
   6   0.0000       0.161577         4.3967 
   7   0.0000       0.161586         4.3970 
   8   0.0000       0.186336         5.0704 
   9   0.0000       0.195146         5.3102 
  10   0.0000       0.195148         5.3103 
  11   0.0000       0.227950         6.2028 
  12   0.0000       0.253590         6.9005 
  13   0.0000       0.253593         6.9006 
  14   0.0000       0.314605         8.5608 
  15   0.0000       0.355528         9.6744 
  16   0.0000       0.355540         9.6747 
  17   0.0000       0.363247         9.8845 
  18   0.0000       0.376654        10.2493 
  19   0.0000       0.384487        10.4624 
  20   0.0000       0.384492        10.4625 
  21   0.0000       0.404608        11.0100 
  22   0.0000       0.404616        11.0102 
  23   0.0000       0.532002        14.4765 
  24   0.0000       0.557183        15.1617 
  25   0.0000       0.557191        15.1619 
  26   0.0000       0.591461        16.0945 
  27   0.0000       0.783046        21.3078 
  28   0.0000       0.793360        21.5884 
  29   0.0000       0.793365        21.5886 
  30   0.0000       0.872494        23.7418 
  31   0.0000       0.872500        23.7419 
  32   0.0000       0.989342        26.9214 
  33   0.0000       1.152781        31.3688 
  34   0.0000       1.152785        31.3689 
  35   0.0000       1.639694        44.6183 
  36   0.0000       1.736125        47.2424 
  37   0.0000       1.745676        47.5022 
  38   0.0000       1.745746        47.5042 
  39   0.0000       1.779625        48.4260 
  40   0.0000       1.932351        52.5820 
  41   0.0000       1.932392        52.5831 
  42   0.0000       2.201871        59.9159 
  43   0.0000       2.272631        61.8414 
  44   0.0000       2.272717        61.8438 
  45   0.0000       2.307668        62.7948 
  46   0.0000       2.605778        70.9068 
  47   0.0000       2.605801        70.9074 
  48   0.0000       2.722733        74.0893 
  49   0.0000       2.722812        74.0915 
  50   0.0000       2.858773        77.7912 
  51   0.0000       3.014106        82.0180 
  52   0.0000       3.158304        85.9418 
  53   0.0000       3.158368        85.9436 
  54   0.0000       3.285992        89.4164 
  55   0.0000       3.286027        89.4173 
  56   0.0000       3.381667        92.0198 
  57   0.0000       3.446524        93.7847 
  58   0.0000       3.687655       100.3462 
  59   0.0000       3.687706       100.3476 
  60   0.0000       4.436261       120.7168 
  61   0.0000       4.436504       120.7234 
  62   0.0000       4.476080       121.8003 
  63   0.0000      22.186412       603.7230 

                 SPIN DOWN ORBITALS
  NO   OCC          E(Eh)            E(eV) 
   0   1.0000     -10.281271      -279.7676 
   1   1.0000      -0.777185       -21.1483 
   2   1.0000      -0.487185       -13.2570 
   3   1.0000      -0.487169       -13.2565 
   4   0.0000      -0.022330        -0.6076 
   5   0.0000       0.084672         2.3040 
   6   0.0000       0.166447         4.5293 
   7   0.0000       0.166448         4.5293 
   8   0.0000       0.200374         5.4524 
   9   0.0000       0.200381         5.4527 
  10   0.0000       0.223391         6.0788 
  11   0.0000       0.243633         6.6296 
  12   0.0000       0.258185         7.0256 
  13   0.0000       0.258185         7.0256 
  14   0.0000       0.325423         8.8552 
  15   0.0000       0.369125        10.0444 
  16   0.0000       0.369126        10.0444 
  17   0.0000       0.373238        10.1563 
  18   0.0000       0.376590        10.2475 
  19   0.0000       0.391948        10.6655 
  20   0.0000       0.391949        10.6655 
  21   0.0000       0.413944        11.2640 
  22   0.0000       0.413946        11.2641 
  23   0.0000       0.560537        15.2530 
  24   0.0000       0.560547        15.2533 
  25   0.0000       0.565672        15.3927 
  26   0.0000       0.602007        16.3814 
  27   0.0000       0.791567        21.5396 
  28   0.0000       0.804771        21.8989 
  29   0.0000       0.804771        21.8989 
  30   0.0000       0.895281        24.3618 
  31   0.0000       0.895291        24.3621 
  32   0.0000       1.009349        27.4658 
  33   0.0000       1.162176        31.6244 
  34   0.0000       1.162177        31.6244 
  35   0.0000       1.706924        46.4478 
  36   0.0000       1.737223        47.2722 
  37   0.0000       1.754644        47.7463 
  38   0.0000       1.754735        47.7488 
  39   0.0000       1.794865        48.8408 
  40   0.0000       1.948538        53.0224 
  41   0.0000       1.948594        53.0239 
  42   0.0000       2.206240        60.0349 
  43   0.0000       2.284147        62.1548 
  44   0.0000       2.284195        62.1561 
  45   0.0000       2.322047        63.1861 
  46   0.0000       2.610804        71.0436 
  47   0.0000       2.610812        71.0438 
  48   0.0000       2.745661        74.7132 
  49   0.0000       2.745704        74.7144 
  50   0.0000       2.883417        78.4618 
  51   0.0000       3.060778        83.2880 
  52   0.0000       3.206947        87.2655 
  53   0.0000       3.207006        87.2671 
  54   0.0000       3.322027        90.3969 
  55   0.0000       3.322101        90.3990 
  56   0.0000       3.401241        92.5525 
  57   0.0000       3.480289        94.7035 
  58   0.0000       3.731488       101.5389 
  59   0.0000       3.731522       101.5399 
  60   0.0000       4.458233       121.3147 
  61   0.0000       4.458440       121.3203 
  62   0.0000       4.501361       122.4883 
  63   0.0000      22.206528       604.2703 

                    ********************************
                    * MULLIKEN POPULATION ANALYSIS *
                    ********************************

--------------------------------------------
MULLIKEN ATOMIC CHARGES AND SPIN POPULATIONS
--------------------------------------------
   0 C :   -0.696779    0.881722
   1 H :    0.231945    0.039376
   2 H :    0.232416    0.039451
   3 H :    0.232418    0.039451
Sum of atomic charges         :    0.0000000
Sum of atomic spin populations:    1.0000000

-----------------------------------------------------
MULLIKEN REDUCED ORBITAL CHARGES AND SPIN POPULATIONS
-----------------------------------------------------
CHARGE
  0 C s       :     3.347137  s :     3.347137
      pz      :     0.941801  p :     3.302313
      px      :     1.180192
      py      :     1.180321
      dz2     :     0.000804  d :     0.046492
      dxz     :     0.014276
      dyz     :     0.014301
      dx2y2   :     0.008544
      dxy     :     0.008567
      f0      :     0.000425  f :     0.000836
      f+1     :     0.000039
      f-1     :     0.000039
      f+2     :    -0.000096
      f-2     :    -0.000091
      f+3     :     0.000520
      f-3     :     0.000000
  1 H s       :     0.722420  s :     0.722420
      pz      :     0.022657  p :     0.045636
      px      :     0.019621
      py      :     0.003358
  2 H s       :     0.722082  s :     0.722082
      pz      :     0.022568  p :     0.045501
      px      :     0.007417
      py      :     0.015516
  3 H s       :     0.722081  s :     0.722081
      pz      :     0.022568  p :     0.045502
      px      :     0.007417
      py      :     0.015517

SPIN
  0 C s       :     0.012846  s :     0.012846
      pz      :     0.869126  p :     0.878553
      px      :     0.004719
      py      :     0.004707
      dz2     :    -0.001424  d :    -0.008880
      dxz     :    -0.003515
      dyz     :    -0.003515
      dx2y2   :    -0.000215
      dxy     :    -0.000211
      f0      :    -0.000420  f :    -0.000796
      f+1     :    -0.000102
      f-1     :    -0.000101
      f+2     :    -0.000019
      f-2     :    -0.000018
      f+3     :    -0.000136
      f-3     :     0.000000
  1 H s       :     0.015802  s :     0.015802
      pz      :     0.020033  p :     0.023575
      px      :     0.000534
      py      :     0.003008
  2 H s       :     0.015942  s :     0.015942
      pz      :     0.019964  p :     0.023509
      px      :     0.002389
      py      :     0.001156
  3 H s       :     0.015942  s :     0.015942
      pz      :     0.019964  p :     0.023509
      px      :     0.002389
      py      :     0.001156


                     *******************************
                     * LOEWDIN POPULATION ANALYSIS *
                     *******************************

-------------------------------------------
LOEWDIN ATOMIC CHARGES AND SPIN POPULATIONS
-------------------------------------------
   0 C :    0.057221    0.834382
   1 H :   -0.019101    0.055205
   2 H :   -0.019060    0.055206
   3 H :   -0.019060    0.055206

----------------------------------------------------
LOEWDIN REDUCED ORBITAL CHARGES AND SPIN POPULATIONS
----------------------------------------------------
CHARGE
  0 C s       :     2.910330  s :     2.910330
      pz      :     0.771881  p :     2.902559
      px      :     1.065344
      py      :     1.065334
      dz2     :     0.005997  d :     0.119236
      dxz     :     0.023475
      dyz     :     0.023482
      dx2y2   :     0.033139
      dxy     :     0.033143
      f0      :     0.001371  f :     0.010654
      f+1     :     0.000060
      f-1     :     0.000060
      f+2     :     0.003205
      f-2     :     0.003208
      f+3     :     0.002751
      f-3     :     0.000000
  1 H s       :     0.755199  s :     0.755199
      pz      :     0.069307  p :     0.263903
      px      :     0.121974
      py      :     0.072622
  2 H s       :     0.755177  s :     0.755177
      pz      :     0.069285  p :     0.263883
      px      :     0.084950
      py      :     0.109647
  3 H s       :     0.755177  s :     0.755177
      pz      :     0.069285  p :     0.263883
      px      :     0.084950
      py      :     0.109647

SPIN
  0 C s       :     0.092159  s :     0.092159
      pz      :     0.714648  p :     0.751294
      px      :     0.018332
      py      :     0.018315
      dz2     :     0.000697  d :    -0.008687
      dxz     :    -0.002984
      dyz     :    -0.002986
      dx2y2   :    -0.001711
      dxy     :    -0.001703
      f0      :    -0.000222  f :    -0.000385
      f+1     :    -0.000056
      f-1     :    -0.000056
      f+2     :    -0.000166
      f-2     :    -0.000165
      f+3     :     0.000281
      f-3     :     0.000000
  1 H s       :    -0.003379  s :    -0.003379
      pz      :     0.056288  p :     0.058584
      px      :     0.003078
      py      :    -0.000781
  2 H s       :    -0.003383  s :    -0.003383
      pz      :     0.056290  p :     0.058589
      px      :     0.000183
      py      :     0.002117
  3 H s       :    -0.003383  s :    -0.003383
      pz      :     0.056290  p :     0.058589
      px      :     0.000183
      py      :     0.002117


                      *****************************
                      * MAYER POPULATION ANALYSIS *
                      *****************************

  NA   - Mulliken gross atomic population
  ZA   - Total nuclear charge
  QA   - Mulliken gross atomic charge
  VA   - Mayer's total valence
  BVA  - Mayer's bonded valence
  FA   - Mayer's free valence

  ATOM       NA         ZA         QA         VA         BVA        FA
  0 C      6.6968     6.0000    -0.6968     3.8036     3.0074     0.7962
  1 H      0.7681     1.0000     0.2319     1.0127     1.0114     0.0014
  2 H      0.7676     1.0000     0.2324     1.0121     1.0108     0.0013
  3 H      0.7676     1.0000     0.2324     1.0121     1.0108     0.0013

  Mayer bond orders larger than 0.100000
B(  0-C ,  1-H ) :   1.0028 B(  0-C ,  2-H ) :   1.0023 B(  0-C ,  3-H ) :   1.0023 


-------
TIMINGS
-------

Total SCF time: 0 days 0 hours 0 min 16 sec 

Total time                  ....      16.408 sec
Sum of individual times     ....      14.494 sec  ( 88.3%)

Fock matrix formation       ....      11.479 sec  ( 70.0%)
  Split-RI-J                ....       1.015 sec  (  8.8% of F)
  Chain of spheres X        ....       1.504 sec  ( 13.1% of F)
  XC integration            ....       2.313 sec  ( 20.1% of F)
    Basis function eval.    ....       0.055 sec  (  2.4% of XC)
    Density eval.           ....       0.066 sec  (  2.8% of XC)
    XC-Functional eval.     ....       0.077 sec  (  3.3% of XC)
    XC-Potential eval.      ....       0.077 sec  (  3.3% of XC)
Diagonalization             ....       0.207 sec  (  1.3%)
Density matrix formation    ....       0.008 sec  (  0.0%)
Population analysis         ....       0.389 sec  (  2.4%)
Initial guess               ....       0.222 sec  (  1.4%)
Orbital Transformation      ....       0.000 sec  (  0.0%)
Orbital Orthonormalization  ....       0.000 sec  (  0.0%)
DIIS solution               ....       1.317 sec  (  8.0%)
Grid generation             ....       0.873 sec  (  5.3%)

Maximum memory used throughout the entire SCF-calculation: 58.5 MB


-------------------------------------------------------------------------------
                          DFT DISPERSION CORRECTION                            
                                                                               
                              DFTD3 V3.1  Rev 1                                
                              USING zero damping                               
-------------------------------------------------------------------------------
The omegaB97X-D3 functional is recognized. Fit by Chai et al.
Active option DFTDOPT                   ...         3   

molecular C6(AA) [au] = 106.959780 


            DFT-D V3
 parameters
 s6 scaling factor         :     1.0000 
 rs6 scaling factor        :     1.2810 
 s8 scaling factor         :     1.0000 
 rs8 scaling factor        :     1.0940 
 Damping factor alpha6     :    14.0000 
 Damping factor alpha8     :    16.0000 
 ad hoc parameters k1-k3   :    16.0000     1.3333    -4.0000 

 Edisp/kcal,au: -0.005797950042  -0.000009239621 
 E6   /kcal   :  -0.000902646 
 E8   /kcal   :  -0.004895304 
 % E8         :  84.431639051 

-------------------------   ----------------
Dispersion correction           -0.000009240
-------------------------   ----------------


-------------------------   --------------------
FINAL SINGLE POINT ENERGY       -39.819881506518
-------------------------   --------------------



           ************************************************************
           *        Program running with 18 parallel MPI-processes    *
           *              working on a common directory               *
           ************************************************************
------------------------------------------------------------------------------
                         ORCA SCF GRADIENT CALCULATION
------------------------------------------------------------------------------

 ... reading COSX grid (gridx3)
Gradient of the Kohn-Sham DFT energy:
Kohn-Sham wavefunction type      ... UKS
Hartree-Fock exchange scaling    ...    0.196
Number of operators              ...    2
Number of atoms                  ...    4
Basis set dimensions             ...   64
Integral neglect threshold       ... 2.5e-11
Integral primitive cutoff        ... 2.5e-12
SHARK Integral package           ... ON

Nuc. rep. gradient       (SHARK) ... done (  0.0 sec)
HCore & Overlap gradient (SHARK) ... done (  0.0 sec)
RI-J gradient            (SHARK) ... done (  0.1 sec)
COSX-gradient                    ... done (  0.1 sec)
Exchange-correlation gradient    ... done
Dispersion correction            ... done

------------------
CARTESIAN GRADIENT
------------------

WARNING: THERE ARE 3 CONSTRAINED CARTESIAN COORDINATES
   1   C   :    0.000018711   -0.000000042    0.050691528
   2   H   :   -0.017137556    0.000000009   -0.016909295
   3   H   :    0.008523936   -0.014896500   -0.016907359
   4   H   :    0.008523953    0.014896508   -0.016907338

Difference to translation invariance:
           :   -0.0000709547   -0.0000000251   -0.0000324638

Difference to rotation invariance:
           :   -0.0000000202    0.0000770184    0.0000000379

Norm of the cartesian gradient     ...    0.0656513161
RMS gradient                       ...    0.0189519025
MAX gradient                       ...    0.0506915285

-------
TIMINGS
-------

Total SCF gradient time            ...        0.697 sec

One electron gradient       ....       0.007 sec  (  1.0%)
RI-J Coulomb gradient       ....       0.132 sec  ( 18.9%)
COSX gradient               ....       0.119 sec  ( 17.0%)
XC gradient                 ....       0.069 sec  (  9.9%)

Maximum memory used throughout the entire SCFGRAD-calculation: 33.6 MB
------------------------------------------------------------------------------
                         ORCA GEOMETRY RELAXATION STEP
------------------------------------------------------------------------------

Reading the OPT-File                    .... done
Getting information on internals        .... done
Copying old internal coords+grads       .... done
Making the new internal coordinates     .... (new redundants).... done
Validating the new internal coordinates .... (new redundants).... done
Calculating the B-matrix                .... done
Calculating the G,G- and P matrices     .... done
Transforming gradient to internals      .... done
Projecting the internal gradient        .... done
Number of atoms                         ....   4
Number of internal coordinates          ....   7
Current Energy                          ....   -39.819881507 Eh
Current gradient norm                   ....     0.065651316 Eh/bohr
Maximum allowed component of the step   ....  0.300
Current trust radius                    ....  0.300
Evaluating the initial hessian          ....  (Almloef) done
Projecting the Hessian                  .... done
Forming the augmented Hessian           .... done
Diagonalizing the augmented Hessian     .... done
Last element of RFO vector              ....  0.999145325
Lowest eigenvalues of augmented Hessian:
 -0.000640486  0.373574723  0.373574723  0.374215209 1000.000000000
Length of the computed step             ....  0.041370804
The final length of the internal step   ....  0.041370804
Converting the step to cartesian space:
 Initial RMS(Int)=    0.0156366943
Transforming coordinates:
 Iter   0:  RMS(Cart)=    0.0111994983 RMS(Int)=    0.0156366943
 Iter   1:  RMS(Cart)=    0.0000000001 RMS(Int)=    0.0000000003
Imposing constraints:
 Iter   0:  RMS(Cart)=    0.0000000013 RMS(Int)=    0.0000000027
CONVERGED
done
Storing new coordinates                 .... done

                                .--------------------.
          ----------------------|Geometry convergence|-------------------------
          Item                value                   Tolerance       Converged
          ---------------------------------------------------------------------
          RMS gradient        0.0058514888            0.0001000000      NO
          MAX gradient        0.0089527223            0.0003000000      NO
          RMS step            0.0156366943            0.0020000000      NO
          MAX step            0.0239239936            0.0040000000      NO
          ........................................................
          Max(Bonds)      0.0127      Max(Angles)    0.00
          Max(Dihed)        0.00      Max(Improp)    0.00
          ---------------------------------------------------------------------

The optimization has not yet converged - more geometry cycles are needed


    ---------------------------------------------------------------------------
                         Redundant Internal Coordinates
                            (Angstroem and degrees)

        Definition                    Value    dE/dq     Step     New-Value
    ----------------------------------------------------------------------------
     1. B(H   1,C   0)                1.0800 -0.008909  0.0126    1.0926   
     2. B(H   2,C   0)                1.0800 -0.008953  0.0127    1.0927   
     3. B(H   3,C   0)                1.0800 -0.008953  0.0127    1.0927   
     4. A(H   2,C   0,H   3)          105.00 -0.030504    0.00    105.00 C 
     5. A(H   1,C   0,H   2)          105.00 -0.012527   -0.00    105.00 C 
     6. A(H   1,C   0,H   3)          105.00 -0.012527    0.00    105.00 C 
     7. I(H   1,H   3,H   2,C   0)     64.84  0.031297   -0.00     64.84   
    ----------------------------------------------------------------------------

         *************************************************************
         *                GEOMETRY OPTIMIZATION CYCLE   2            *
         *************************************************************
---------------------------------
CARTESIAN COORDINATES (ANGSTROEM)
---------------------------------
  C      0.000018    0.000000    0.003801
  H      1.000927    0.000000   -0.434323
  H     -0.500472    0.866865   -0.434331
  H     -0.500472   -0.866865   -0.434331

----------------------------
CARTESIAN COORDINATES (A.U.)
----------------------------
  NO LB      ZA    FRAG     MASS         X           Y           Z
   0 C     6.0000    0    12.011    0.000033    0.000000    0.007183
   1 H     1.0000    0     1.008    1.891477    0.000000   -0.820752
   2 H     1.0000    0     1.008   -0.945755    1.638138   -0.820767
   3 H     1.0000    0     1.008   -0.945755   -1.638138   -0.820767

--------------------------------
INTERNAL COORDINATES (ANGSTROEM)
--------------------------------
 C      0   0   0     0.000000000000     0.00000000     0.00000000
 H      1   0   0     1.092598781273     0.00000000     0.00000000
 H      1   2   0     1.092659987050   104.99999992     0.00000000
 H      1   2   3     1.092660032094   104.99999992   110.43828017

---------------------------
INTERNAL COORDINATES (A.U.)
---------------------------
 C      0   0   0     0.000000000000     0.00000000     0.00000000
 H      1   0   0     2.064712470862     0.00000000     0.00000000
 H      1   2   0     2.064828133018   104.99999992     0.00000000
 H      1   2   3     2.064828218140   104.99999992   110.43828017



           ************************************************************
           *        Program running with 18 parallel MPI-processes    *
           *              working on a common directory               *
           ************************************************************
------------------------------------------------------------------------------
                   ___                                                        
                  /   \      - P O W E R E D   B Y -                         
                 /     \                                                     
                 |  |  |   _    _      __       _____    __    __             
                 |  |  |  | |  | |    /  \     |  _  \  |  |  /  |          
                  \  \/   | |  | |   /    \    | | | |  |  | /  /          
                 / \  \   | |__| |  /  /\  \   | |_| |  |  |/  /          
                |  |  |   |  __  | /  /__\  \  |    /   |      \           
                |  |  |   | |  | | |   __   |  |    \   |  |\   \          
                \     /   | |  | | |  |  |  |  | |\  \  |  | \   \       
                 \___/    |_|  |_| |__|  |__|  |_| \__\ |__|  \__/        
                                                                              
                      - O R C A' S   B I G   F R I E N D -                    
                                      &                                       
                       - I N T E G R A L  F E E D E R -                       
                                                                              
 v1 FN, 2020, v2 2021                                                         
------------------------------------------------------------------------------


Reading SHARK input file /beegfs/scratch/ispackman/PFAS_EPR_calcs/benchmark/JChemEd_CF3_radical/CH3_radical_105.0_degrees_IN-PROGRESS/CH3_radical_105.0_degrees.SHARKINP.tmp ... ok
----------------------
SHARK INTEGRAL PACKAGE
----------------------

Number of atoms                             ...      4
Number of basis functions                   ...     64
Number of shells                            ...     28
Maximum angular momentum                    ...      3
Integral batch strategy                     ... SHARK/LIBINT Hybrid
RI-J (if used) integral strategy            ... SPLIT-RIJ (Revised 2003 algorithm where possible)
Printlevel                                  ...      1
Contraction scheme used                     ... SEGMENTED contraction
Coulomb Range Separation                    ... NOT USED
Exchange Range Separation                   ... Long Range
   Mu parameter                             ...  0.250000
   Scaling (regular/separated)              ...  0.195728  0.804272
Finite Nucleus Model                        ... NOT USED
Auxiliary Coulomb fitting basis             ... AVAILABLE
   # of basis functions in Aux-J            ...     82
   # of shells in Aux-J                     ...     30
   Maximum angular momentum in Aux-J        ...      4
Auxiliary J/K fitting basis                 ... NOT available
Auxiliary Correlation fitting basis         ... NOT available
Auxiliary 'external' fitting basis          ... NOT available
Integral threshold                          ...     2.500000e-11
Primitive cut-off                           ...     2.500000e-12
Primitive pair pre-selection threshold      ...     2.500000e-12

Calculating pre-screening integrals         ... done (  0.0 sec) Dimension = 28
Organizing shell pair data                  ... done (  0.0 sec)
Shell pair information
Total number of shell pairs                 ...       406
Shell pairs after pre-screening             ...       406
Total number of primitive shell pairs       ...       977
Primitive shell pairs kept                  ...       947
          la=0 lb=0:    120 shell pairs
          la=1 lb=0:    135 shell pairs
          la=1 lb=1:     45 shell pairs
          la=2 lb=0:     45 shell pairs
          la=2 lb=1:     27 shell pairs
          la=2 lb=2:      6 shell pairs
          la=3 lb=0:     15 shell pairs
          la=3 lb=1:      9 shell pairs
          la=3 lb=2:      3 shell pairs
          la=3 lb=3:      1 shell pairs

Calculating one electron integrals          ... done (  0.0 sec)
Calculating RI/J V-Matrix + Cholesky decomp.... done (  0.2 sec)
Calculating Nuclear repulsion               ... done (  0.0 sec) ENN=      9.633285911762 Eh

SHARK setup successfully completed in   0.7 seconds

Maximum memory used throughout the entire GTOINT-calculation: 14.0 MB


           ************************************************************
           *        Program running with 18 parallel MPI-processes    *
           *              working on a common directory               *
           ************************************************************

Diagonalization of the overlap matrix:
Smallest eigenvalue                        ... 5.013e-05
Time for diagonalization                   ...    0.002 sec
Threshold for overlap eigenvalues          ... 1.000e-08
Number of eigenvalues below threshold      ... 0
Time for construction of square roots      ...    0.109 sec
Total time needed                          ...    0.112 sec

-------------------
DFT GRID GENERATION
-------------------

General Integration Accuracy     IntAcc      ... 4.388
Radial Grid Type                 RadialGrid  ... OptM3 with GC (2021)
Angular Grid (max. ang.)         AngularGrid ... 4 (Lebedev-302)
Angular grid pruning method      GridPruning ... 4 (adaptive)
Weight generation scheme         WeightScheme... Becke
Basis function cutoff            BFCut       ... 1.0000e-11
Integration weight cutoff        WCut        ... 1.0000e-14
Angular grids for H and He will be reduced by one unit
Partially contracted basis set               ... off
Rotationally invariant grid construction     ... off

Total number of grid points                  ...    17049
Total number of batches                      ...      268
Average number of points per batch           ...       63
Average number of grid points per atom       ...     4262
Time for grid setup =    0.148 sec

--------------------
COSX GRID GENERATION
--------------------

GRIDX 1
-------
General Integration Accuracy     IntAcc      ... 3.816
Radial Grid Type                 RadialGrid  ... OptM3 with GC (2021)
Angular Grid (max. ang.)         AngularGrid ... 1 (Lebedev-50)
Angular grid pruning method      GridPruning ... 4 (adaptive)
Weight generation scheme         WeightScheme... Becke
Basis function cutoff            BFCut       ... 1.0000e-11
Integration weight cutoff        WCut        ... 1.0000e-14
Angular grids for H and He will be reduced by one unit
Partially contracted basis set               ... on
Rotationally invariant grid construction     ... off

Total number of grid points                  ...     2149
Total number of batches                      ...       36
Average number of points per batch           ...       59
Average number of grid points per atom       ...      537
UseSFitting                                  ... on

GRIDX 2
-------
General Integration Accuracy     IntAcc      ... 4.020
Radial Grid Type                 RadialGrid  ... OptM3 with GC (2021)
Angular Grid (max. ang.)         AngularGrid ... 2 (Lebedev-110)
Angular grid pruning method      GridPruning ... 4 (adaptive)
Weight generation scheme         WeightScheme... Becke
Basis function cutoff            BFCut       ... 1.0000e-11
Integration weight cutoff        WCut        ... 1.0000e-14
Angular grids for H and He will be reduced by one unit
Partially contracted basis set               ... on
Rotationally invariant grid construction     ... off

Total number of grid points                  ...     5035
Total number of batches                      ...       82
Average number of points per batch           ...       61
Average number of grid points per atom       ...     1259
UseSFitting                                  ... on

GRIDX 3
-------
General Integration Accuracy     IntAcc      ... 4.338
Radial Grid Type                 RadialGrid  ... OptM3 with GC (2021)
Angular Grid (max. ang.)         AngularGrid ... 3 (Lebedev-194)
Angular grid pruning method      GridPruning ... 4 (adaptive)
Weight generation scheme         WeightScheme... Becke
Basis function cutoff            BFCut       ... 1.0000e-11
Integration weight cutoff        WCut        ... 1.0000e-14
Angular grids for H and He will be reduced by one unit
Partially contracted basis set               ... on
Rotationally invariant grid construction     ... off

Total number of grid points                  ...    11712
Total number of batches                      ...      186
Average number of points per batch           ...       62
Average number of grid points per atom       ...     2928
UseSFitting                                  ... on

Time for X-Grid setup             =    0.602 sec

--------------
SCF ITERATIONS
--------------
ITER       Energy         Delta-E        Max-DP      RMS-DP      [F,P]     Damp
               ***  Starting incremental Fock matrix formation  ***
  0    -39.8201009801   0.000000000000 0.00664179  0.00011705  0.0031715 0.7000
  1    -39.8201305376  -0.000029557505 0.00585463  0.00010247  0.0021485 0.7000
                               ***Turning on DIIS***
  2    -39.8201503204  -0.000019782795 0.01530169  0.00026646  0.0014663 0.0000
  3    -39.8201938152  -0.000043494858 0.00370956  0.00006570  0.0005960 0.0000
               *** Restarting incremental Fock matrix formation ***
                                   *** Resetting DIIS ***
  4    -39.8201958457  -0.000002030480 0.00034865  0.00001148  0.0002645 0.0000
  5    -39.8201961849  -0.000000339162 0.00033203  0.00000655  0.0001616 0.0000
  6    -39.8201963216  -0.000000136744 0.00007225  0.00000260  0.0000322 0.0000
  7    -39.8201963342  -0.000000012623 0.00003462  0.00000095  0.0000086 0.0000
                 **** Energy Check signals convergence ****

               *****************************************************
               *                     SUCCESS                       *
               *           SCF CONVERGED AFTER   8 CYCLES          *
               *****************************************************

Old exchange energy                            =     -2.170395277 Eh
New exchange energy                            =     -2.170399098 Eh
Exchange energy change after final integration =     -0.000003822 Eh
Total energy after final integration           =    -39.820200157 Eh
Final COS-X integration done in                =     0.133 sec
Total Energy       :          -39.82020016 Eh           -1083.56273 eV
  Last Energy change         ...   -8.5338e-10  Tolerance :   1.0000e-08
  Last MAX-Density change    ...    0.0000e+00  Tolerance :   1.0000e-07
             **** THE GBW FILE WAS UPDATED (/beegfs/scratch/ispackman/PFAS_EPR_calcs/benchmark/JChemEd_CF3_radical/CH3_radical_105.0_degrees_IN-PROGRESS/CH3_radical_105.0_degrees.gbw) ****
             **** DENSITY /beegfs/scratch/ispackman/PFAS_EPR_calcs/benchmark/JChemEd_CF3_radical/CH3_radical_105.0_degrees_IN-PROGRESS/CH3_radical_105.0_degrees.scfp WAS UPDATED ****
             **** ENERGY FILE WAS UPDATED (/beegfs/scratch/ispackman/PFAS_EPR_calcs/benchmark/JChemEd_CF3_radical/CH3_radical_105.0_degrees_IN-PROGRESS/CH3_radical_105.0_degrees.en.tmp) ****
----------------------
UHF SPIN CONTAMINATION
----------------------

Warning: in a DFT calculation there is little theoretical justification to 
         calculate <S**2> as in Hartree-Fock theory. We will do it anyways
         but you should keep in mind that the values have only limited relevance

Expectation value of <S**2>     :     0.753019
Ideal value S*(S+1) for S=0.5   :     0.750000
Deviation                       :     0.003019

             **** THE GBW FILE WAS UPDATED (/beegfs/scratch/ispackman/PFAS_EPR_calcs/benchmark/JChemEd_CF3_radical/CH3_radical_105.0_degrees_IN-PROGRESS/CH3_radical_105.0_degrees.gbw) ****
             **** DENSITY /beegfs/scratch/ispackman/PFAS_EPR_calcs/benchmark/JChemEd_CF3_radical/CH3_radical_105.0_degrees_IN-PROGRESS/CH3_radical_105.0_degrees.scfp WAS UPDATED ****
Total SCF time: 0 days 0 hours 0 min 12 sec 

Maximum memory used throughout the entire SCF-calculation: 58.5 MB


-------------------------------------------------------------------------------
                          DFT DISPERSION CORRECTION                            
                                                                               
                              DFTD3 V3.1  Rev 1                                
                              USING zero damping                               
-------------------------------------------------------------------------------
-------------------------   ----------------
Dispersion correction           -0.000010142
-------------------------   ----------------


-------------------------   --------------------
FINAL SINGLE POINT ENERGY       -39.820210298763
-------------------------   --------------------



           ************************************************************
           *        Program running with 18 parallel MPI-processes    *
           *              working on a common directory               *
           ************************************************************
------------------------------------------------------------------------------
                         ORCA SCF GRADIENT CALCULATION
------------------------------------------------------------------------------

 ... reading COSX grid (gridx3)
Gradient of the Kohn-Sham DFT energy:
Kohn-Sham wavefunction type      ... UKS
Hartree-Fock exchange scaling    ...    0.196
Number of operators              ...    2
Number of atoms                  ...    4
Basis set dimensions             ...   64
Integral neglect threshold       ... 2.5e-11
Integral primitive cutoff        ... 2.5e-12
SHARK Integral package           ... ON

Nuc. rep. gradient       (SHARK) ... done (  0.0 sec)
HCore & Overlap gradient (SHARK) ... done (  0.0 sec)
RI-J gradient            (SHARK) ... done (  0.2 sec)
COSX-gradient                    ... done (  0.1 sec)
Exchange-correlation gradient    ... done
Dispersion correction            ... done

------------------
CARTESIAN GRADIENT
------------------

WARNING: THERE ARE 3 CONSTRAINED CARTESIAN COORDINATES
   1   C   :    0.000055621    0.000000000    0.059145073
   2   H   :   -0.009008210    0.000000005   -0.019719115
   3   H   :    0.004439520   -0.007821524   -0.019731807
   4   H   :    0.004439481    0.007821505   -0.019731834

Difference to translation invariance:
           :   -0.0000735873   -0.0000000131   -0.0000376837

Difference to rotation invariance:
           :    0.0000000351    0.0000796479   -0.0000000354

Norm of the cartesian gradient     ...    0.0700613593
RMS gradient                       ...    0.0202249723
MAX gradient                       ...    0.0591450728

-------
TIMINGS
-------

Total SCF gradient time            ...        0.838 sec

One electron gradient       ....       0.007 sec  (  0.8%)
RI-J Coulomb gradient       ....       0.165 sec  ( 19.7%)
COSX gradient               ....       0.144 sec  ( 17.2%)
XC gradient                 ....       0.067 sec  (  8.0%)

Maximum memory used throughout the entire SCFGRAD-calculation: 33.6 MB
------------------------------------------------------------------------------
                         ORCA GEOMETRY RELAXATION STEP
------------------------------------------------------------------------------

Reading the OPT-File                    .... done
Getting information on internals        .... done
Copying old internal coords+grads       .... done
Making the new internal coordinates     .... (new redundants).... done
Validating the new internal coordinates .... (new redundants).... done
Calculating the B-matrix                .... done
Calculating the G,G- and P matrices     .... done
Transforming gradient to internals      .... done
Projecting the internal gradient        .... done
Number of atoms                         ....   4
Number of internal coordinates          ....   7
Current Energy                          ....   -39.820210299 Eh
Current gradient norm                   ....     0.070061359 Eh/bohr
Maximum allowed component of the step   ....  0.300
Current trust radius                    ....  0.300
Updating the Hessian (BFGS)             .... done
Forming the augmented Hessian           .... done
Diagonalizing the augmented Hessian     .... done
Last element of RFO vector              ....  0.999998690
Lowest eigenvalues of augmented Hessian:
 -0.000000944  0.360124391  0.373574723  0.373574727 999.999999955
Length of the computed step             ....  0.001618850
The final length of the internal step   ....  0.001618850
Converting the step to cartesian space:
 Initial RMS(Int)=    0.0006118679
Transforming coordinates:
 Iter   0:  RMS(Cart)=    0.0004382391 RMS(Int)=    0.0006118679
 Iter   1:  RMS(Cart)=    0.0000000000 RMS(Int)=    0.0000000000
Imposing constraints:
 Iter   0:  RMS(Cart)=    0.0000000005 RMS(Int)=    0.0000000016
CONVERGED
done
Storing new coordinates                 .... done

                                .--------------------.
          ----------------------|Geometry convergence|-------------------------
          Item                value                   Tolerance       Converged
          ---------------------------------------------------------------------
          Energy change      -0.0003287922            0.0000050000      NO
          RMS gradient        0.0002203485            0.0001000000      NO
          MAX gradient        0.0003372555            0.0003000000      NO
          RMS step            0.0006118679            0.0020000000      YES
          MAX step            0.0009364977            0.0040000000      YES
          ........................................................
          Max(Bonds)      0.0005      Max(Angles)    0.00
          Max(Dihed)        0.00      Max(Improp)    0.00
          ---------------------------------------------------------------------

       The step convergence is overachieved with 
       reasonable convergence on the gradient
       Convergence will therefore be signaled now


                    ***********************HURRAY********************
                    ***        THE OPTIMIZATION HAS CONVERGED     ***
                    *************************************************


    ---------------------------------------------------------------------------
                         Redundant Internal Coordinates

                          --- Optimized Parameters ---  
                            (Angstroem and degrees)

        Definition                    OldVal   dE/dq     Step     FinalVal
    ----------------------------------------------------------------------------
     1. B(H   1,C   0)                1.0926 -0.000335  0.0005    1.0931   
     2. B(H   2,C   0)                1.0927 -0.000337  0.0005    1.0932   
     3. B(H   3,C   0)                1.0927 -0.000337  0.0005    1.0932   
     4. A(H   2,C   0,H   3)          105.00 -0.029911   -0.00    105.00 C 
     5. A(H   1,C   0,H   2)          105.00 -0.012283   -0.00    105.00 C 
     6. A(H   1,C   0,H   3)          105.00 -0.012283   -0.00    105.00 C 
     7. I(H   1,H   3,H   2,C   0)     64.84  0.030687    0.00     64.84   
    ----------------------------------------------------------------------------
                 *******************************************************
                 *** FINAL ENERGY EVALUATION AT THE STATIONARY POINT ***
                 ***               (AFTER    2 CYCLES)               ***
                 *******************************************************
---------------------------------
CARTESIAN COORDINATES (ANGSTROEM)
---------------------------------
  C      0.000019   -0.000000    0.003950
  H      1.001379   -0.000000   -0.434373
  H     -0.500699    0.867259   -0.434381
  H     -0.500699   -0.867259   -0.434381

----------------------------
CARTESIAN COORDINATES (A.U.)
----------------------------
  NO LB      ZA    FRAG     MASS         X           Y           Z
   0 C     6.0000    0    12.011    0.000035   -0.000000    0.007464
   1 H     1.0000    0     1.008    1.892331   -0.000000   -0.820846
   2 H     1.0000    0     1.008   -0.946183    1.638881   -0.820861
   3 H     1.0000    0     1.008   -0.946183   -1.638881   -0.820861

--------------------------------
INTERNAL COORDINATES (ANGSTROEM)
--------------------------------
 C      0   0   0     0.000000000000     0.00000000     0.00000000
 H      1   0   0     1.093091450775     0.00000000     0.00000000
 H      1   2   0     1.093155560310   104.99999985     0.00000000
 H      1   2   3     1.093155560029   104.99999985   110.43828008

---------------------------
INTERNAL COORDINATES (A.U.)
---------------------------
 C      0   0   0     0.000000000000     0.00000000     0.00000000
 H      1   0   0     2.065643481295     0.00000000     0.00000000
 H      1   2   0     2.065764630760   104.99999985     0.00000000
 H      1   2   3     2.065764630228   104.99999985   110.43828008

---------------------
BASIS SET INFORMATION
---------------------
There are 2 groups of distinct atoms

 Group   1 Type C   : 12s6p3d1f contracted to 6s3p3d1f pattern {621111/411/111/1}
 Group   2 Type H   : 5s2p contracted to 3s2p pattern {311/11}

Atom   0C    basis set group =>   1
Atom   1H    basis set group =>   2
Atom   2H    basis set group =>   2
Atom   3H    basis set group =>   2
---------------------------------
AUXILIARY/J BASIS SET INFORMATION
---------------------------------
There are 2 groups of distinct atoms

 Group   1 Type C   : 12s5p4d2f1g contracted to 6s4p3d1f1g pattern {711111/2111/211/2/1}
 Group   2 Type H   : 5s2p1d contracted to 3s1p1d pattern {311/2/1}

Atom   0C    basis set group =>   1
[...]
  ZA   - Total nuclear charge
  QA   - Mulliken gross atomic charge
  VA   - Mayer's total valence
  BVA  - Mayer's bonded valence
  FA   - Mayer's free valence

  ATOM       NA         ZA         QA         VA         BVA        FA
  0 C      6.6821     6.0000    -0.6821     3.8086     3.0058     0.8028
  1 H      0.7729     1.0000     0.2271     1.0162     1.0149     0.0012
  2 H      0.7725     1.0000     0.2275     1.0155     1.0143     0.0012
  3 H      0.7725     1.0000     0.2275     1.0155     1.0143     0.0012

  Mayer bond orders larger than 0.100000
B(  0-C ,  1-H ) :   1.0023 B(  0-C ,  2-H ) :   1.0018 B(  0-C ,  3-H ) :   1.0018 


-------
TIMINGS
-------

Total SCF time: 0 days 0 hours 0 min 12 sec 

Total time                  ....      12.032 sec
Sum of individual times     ....      10.037 sec  ( 83.4%)

Fock matrix formation       ....       7.988 sec  ( 66.4%)
  Split-RI-J                ....       0.876 sec  ( 11.0% of F)
  Chain of spheres X        ....       1.063 sec  ( 13.3% of F)
  XC integration            ....       1.551 sec  ( 19.4% of F)
    Basis function eval.    ....       0.030 sec  (  1.9% of XC)
    Density eval.           ....       0.039 sec  (  2.5% of XC)
    XC-Functional eval.     ....       0.040 sec  (  2.6% of XC)
    XC-Potential eval.      ....       0.040 sec  (  2.6% of XC)
Diagonalization             ....       0.137 sec  (  1.1%)
Density matrix formation    ....       0.008 sec  (  0.1%)
Population analysis         ....       0.396 sec  (  3.3%)
Initial guess               ....       0.008 sec  (  0.1%)
Orbital Transformation      ....       0.000 sec  (  0.0%)
Orbital Orthonormalization  ....       0.002 sec  (  0.0%)
DIIS solution               ....       0.605 sec  (  5.0%)
Grid generation             ....       0.896 sec  (  7.4%)

Maximum memory used throughout the entire SCF-calculation: 58.5 MB


-------------------------------------------------------------------------------
                          DFT DISPERSION CORRECTION                            
                                                                               
                              DFTD3 V3.1  Rev 1                                
                              USING zero damping                               
-------------------------------------------------------------------------------
The omegaB97X-D3 functional is recognized. Fit by Chai et al.
Active option DFTDOPT                   ...         3   

molecular C6(AA) [au] = 106.992029 


            DFT-D V3
 parameters
 s6 scaling factor         :     1.0000 
 rs6 scaling factor        :     1.2810 
 s8 scaling factor         :     1.0000 
 rs8 scaling factor        :     1.0940 
 Damping factor alpha6     :    14.0000 
 Damping factor alpha8     :    16.0000 
 ad hoc parameters k1-k3   :    16.0000     1.3333    -4.0000 

 Edisp/kcal,au: -0.006387396773  -0.000010178964 
 E6   /kcal   :  -0.000994532 
 E8   /kcal   :  -0.005392865 
 % E8         :  84.429783167 

-------------------------   ----------------
Dispersion correction           -0.000010179
-------------------------   ----------------


-------------------------   --------------------
FINAL SINGLE POINT ENERGY       -39.820210790786
-------------------------   --------------------

                                *** OPTIMIZATION RUN DONE ***

                            ***************************************
                            *     ORCA property calculations      *
                            ***************************************

                                    ---------------------
                                    Active property flags
                                    ---------------------
   (+) Dipole Moment


------------------------------------------------------------------------------
                       ORCA ELECTRIC PROPERTIES CALCULATION
------------------------------------------------------------------------------

Dipole Moment Calculation                       ... on
Quadrupole Moment Calculation                   ... off
Polarizability Calculation                      ... off
GBWName                                         ... /beegfs/scratch/ispackman/PFAS_EPR_calcs/benchmark/JChemEd_CF3_radical/CH3_radical_105.0_degrees_IN-PROGRESS/CH3_radical_105.0_degrees.gbw
Electron density                                ... /beegfs/scratch/ispackman/PFAS_EPR_calcs/benchmark/JChemEd_CF3_radical/CH3_radical_105.0_degrees_IN-PROGRESS/CH3_radical_105.0_degrees.scfp
The origin for moment calculation is the CENTER OF MASS  = ( 0.000026, -0.000000 -0.159136)

-------------
DIPOLE MOMENT
-------------
                                X             Y             Z
Electronic contribution:      0.00005      -0.00000       0.70777
Nuclear contribution   :     -0.00006       0.00000      -0.98555
                        -----------------------------------------
Total Dipole Moment    :     -0.00001      -0.00000      -0.27778
                        -----------------------------------------
Magnitude (a.u.)       :      0.27778
Magnitude (Debye)      :      0.70607



--------------------
Rotational spectrum 
--------------------
 
Rotational constants in cm-1:     8.512507     8.511998     5.558993 
Rotational constants in MHz : 255198.548525 255183.271020 166654.411953 

 Dipole components along the rotational axes: 
x,y,z [a.u.] :    -0.000000     0.000019    -0.277783 
x,y,z [Debye]:    -0.000000     0.000049    -0.706069 

 


           ************************************************************
           *        Program running with 18 parallel MPI-processes    *
           *              working on a common directory               *
           ************************************************************

-------------------------------------------------------------------------------
                               ORCA SCF HESSIAN
-------------------------------------------------------------------------------

                   --------- SHARK INITIALIZATION DONE ---------

Hessian of the Kohn-Sham DFT energy:
Kohn-Sham wavefunction type                      ... UKS
Hartree-Fock exchange scaling                    ...    0.196
Number of operators                              ...    2
Number of atoms                                  ...    4
Basis set dimensions                             ...   64
Integral neglect threshold                       ... 2.5e-11
Integral primitive cutoff                        ... 2.5e-12

Setting up DFT Hessian calculations              ... 

HESS GRID
---------

General Integration Accuracy     IntAcc      ... 4.629
Radial Grid Type                 RadialGrid  ... OptM3 with GC (2021)
Angular Grid (max. ang.)         AngularGrid ... 5 (Lebedev-434)
Angular grid pruning method      GridPruning ... 4 (adaptive)
Weight generation scheme         WeightScheme... Becke
Basis function cutoff            BFCut       ... 1.0000e-11
Integration weight cutoff        WCut        ... 1.0000e-14
Angular grids for H and He will be reduced by one unit
Partially contracted basis set               ... off
Rotationally invariant grid construction     ... off

Total number of grid points                  ...    27262
Total number of batches                      ...      428
Average number of points per batch           ...       63
Average number of grid points per atom       ...     6816

Building densities                               ... done   (      0.0 sec)
Calculating rho(r) on the grid                   ... done   (      0.1 sec)
Building xc-kernel on the grid                   ... done   (      0.1 sec)
                                                     done   (      0.5 sec)

Nuclear repulsion Hessian  (SHARK)               ... done   (      0.0 sec)

----------------------------------------------
Forming right-hand sides of CP-SCF equations     ...
----------------------------------------------
One electron integral derivatives  (SHARK)       ... done   (      0.0 sec)
Transforming the overlap derivative matrices     ... done   (      0.0 sec)
Making the Q(x) pseudodensities                  ... done   (      0.0 sec)
Adding the E*S(x)*S(y) terms to the Hessian      ... done   (      0.0 sec)
Calculating energy weighted overlap derivatives  ... done   (      0.1 sec)
Two electron integral derivatives (SHARK-RI)     ... done   (      0.8 sec)
Exchange-correlation integral derivatives        ... done   (      0.4 sec)
tr(F(y)Q(x)) contribution to the Hessian         ... done   (      0.0 sec)
Response fock operator R(S(x)) (SHARK-RIJCOSX)   ... done   (      0.7 sec)
XC Response fock operator R(S(x))                ... done   (      0.1 sec)
tr(F(y)S(x)) contribution to the Hessian         ... done   (      0.0 sec)
Transforming and finalizing RHSs                 ... done   (      0.0 sec)

----------------------------------------------
Solving the CP-SCF equations (RIJCOSX)           ...
----------------------------------------------
     CP-SCF ITERATION   0:   1.0807e-01 (   0.5 sec   0/ 12 done)
     CP-SCF ITERATION   1:   2.7931e-02 (   0.4 sec   0/ 12 done)
     CP-SCF ITERATION   2:   8.6502e-03 (   0.4 sec   0/ 12 done)
     CP-SCF ITERATION   3:   2.9095e-03 (   0.4 sec   0/ 12 done)
     CP-SCF ITERATION   4:   5.1093e-04 (   0.4 sec   2/ 12 done)
     CP-SCF ITERATION   5:   1.0386e-04 (   0.4 sec  11/ 12 done)
     CP-SCF ITERATION   6:   2.3499e-05 (   0.4 sec  12/ 12 done)
                    *** THE CP-SCF HAS CONVERGED ***

                                                 ... done   (      3.2 sec)
Forming perturbed density Hessian contributions  ... done   (      0.0 sec)
2nd integral derivative contribs (SHARK-RI)      ... done   (      0.9 sec)
Exchange-correlation Hessian                     ... done   (      0.3 sec)
Dispersion correction in the Hessian             ... done   (      0.1 sec)
Dipole derivatives                               ... (center of mass:  0.000026, -0.000000 -0.159136)done   (      0.2 sec)

Total SCF Hessian time: 0 days 0 hours 0 min 8 sec 

Writing the Hessian file to the disk             ... done


Maximum memory used throughout the entire SCFHESS-calculation: 109.3 MB

-----------------------
VIBRATIONAL FREQUENCIES
-----------------------

Scaling factor for frequencies =  1.000000000  (already applied!)

   0:         0.00 cm**-1
   1:         0.00 cm**-1
   2:         0.00 cm**-1
   3:         0.00 cm**-1
   4:         0.00 cm**-1
   5:         0.00 cm**-1
   6:      1234.78 cm**-1
   7:      1406.47 cm**-1
   8:      1409.35 cm**-1
   9:      3063.38 cm**-1
  10:      3142.02 cm**-1
  11:      3142.12 cm**-1


------------
NORMAL MODES
------------

These modes are the Cartesian displacements weighted by the diagonal matrix
M(i,i)=1/sqrt(m[i]) where m[i] is the mass of the displaced atom
Thus, these vectors are normalized but *not* orthogonal

                  0          1          2          3          4          5    
      0       0.000000   0.000000   0.000000   0.000000   0.000000   0.000000
      1       0.000000   0.000000   0.000000   0.000000   0.000000   0.000000
      2       0.000000   0.000000   0.000000   0.000000   0.000000   0.000000
      3       0.000000   0.000000   0.000000   0.000000   0.000000   0.000000
      4       0.000000   0.000000   0.000000   0.000000   0.000000   0.000000
      5       0.000000   0.000000   0.000000   0.000000   0.000000   0.000000
      6       0.000000   0.000000   0.000000   0.000000   0.000000   0.000000
      7       0.000000   0.000000   0.000000   0.000000   0.000000   0.000000
      8       0.000000   0.000000   0.000000   0.000000   0.000000   0.000000
      9       0.000000   0.000000   0.000000   0.000000   0.000000   0.000000
     10       0.000000   0.000000   0.000000   0.000000   0.000000   0.000000
     11       0.000000   0.000000   0.000000   0.000000   0.000000   0.000000
                  6          7          8          9         10         11    
      0      -0.000096   0.000001   0.076438   0.000221   0.000044  -0.089927
      1       0.000000  -0.076420   0.000001  -0.000000  -0.089944  -0.000044
      2       0.132425   0.000000   0.000121   0.047041  -0.000000   0.000096
      3      -0.225461   0.000001   0.147735   0.543763  -0.000369   0.751293
      4      -0.000001   0.755160  -0.000007   0.000000  -0.035315  -0.000017
      5      -0.526338   0.000002   0.265309  -0.186079   0.000154  -0.313070
      6       0.113302   0.391089  -0.529273  -0.273198  -0.340050   0.159955
      7      -0.194936   0.077714  -0.391224   0.473343   0.553695  -0.338501
      8      -0.525796  -0.230116  -0.133372  -0.187222  -0.270917   0.155830
      9       0.113303  -0.391098  -0.529267  -0.273197   0.339894   0.160288
     10       0.194935   0.077722   0.391223  -0.473341   0.553365   0.339042
     11      -0.525797   0.230112  -0.133377  -0.187221   0.270765   0.156095


-----------
IR SPECTRUM
-----------

 Mode   freq       eps      Int      T**2         TX        TY        TZ
       cm**-1   L/(mol*cm) km/mol    a.u.
----------------------------------------------------------------------------
  6:   1234.78   0.002437   12.32  0.000616  (-0.000117 -0.000000 -0.024818)
  7:   1406.47   0.000750    3.79  0.000166  (-0.000000  0.012898 -0.000000)
  8:   1409.35   0.000738    3.73  0.000163  (-0.012781 -0.000000 -0.000130)
  9:   3063.38   0.000017    0.09  0.000002  ( 0.000043 -0.000000  0.001322)
 10:   3142.02   0.005698   28.79  0.000566  ( 0.000011 -0.023788  0.000000)
 11:   3142.12   0.005561   28.10  0.000552  (-0.023501 -0.000012 -0.000008)

* The epsilon (eps) is given for a Dirac delta lineshape.
** The dipole moment derivative (T) already includes vibrational overlap.

The first frequency considered to be a vibration is 6
The total number of vibrations considered is 6


--------------------------
THERMOCHEMISTRY AT 298.15K
--------------------------

Temperature         ... 298.15 K
Pressure            ... 1.00 atm
Total Mass          ... 15.03 AMU

Throughout the following assumptions are being made:
  (1) The electronic state is orbitally nondegenerate
      but the spin degeneracy is treated
  (2) There are no thermally accessible electronically excited states
  (3) Hindered rotations indicated by low frequency modes are not
      treated as such but are treated as vibrations and this may
      cause some error
  (4) All equations used are the standard statistical mechanics
      equations for an ideal gas
  (5) All vibrations are strictly harmonic

freq.    1234.78  E(vib)   ...       0.01 
freq.    1406.47  E(vib)   ...       0.00 
freq.    1409.35  E(vib)   ...       0.00 
freq.    3063.38  E(vib)   ...       0.00 
freq.    3142.02  E(vib)   ...       0.00 
freq.    3142.12  E(vib)   ...       0.00 

------------
INNER ENERGY
------------

The inner energy is: U= E(el) + E(ZPE) + E(vib) + E(rot) + E(trans)
    E(el)   - is the total energy from the electronic structure calculation
              = E(kin-el) + E(nuc-el) + E(el-el) + E(nuc-nuc)
    E(ZPE)  - the the zero temperature vibrational energy from the frequency calculation
    E(vib)  - the the finite temperature correction to E(ZPE) due to population
              of excited vibrational states
    E(rot)  - is the rotational thermal energy
    E(trans)- is the translational thermal energy

Summary of contributions to the inner energy U:
Electronic energy                ...    -39.82021079 Eh
Zero point energy                ...      0.03052314 Eh      19.15 kcal/mol
Thermal vibrational correction   ...      0.00002898 Eh       0.02 kcal/mol
Thermal rotational correction    ...      0.00141627 Eh       0.89 kcal/mol
Thermal translational correction ...      0.00141627 Eh       0.89 kcal/mol
-----------------------------------------------------------------------
Total thermal energy                    -39.78682613 Eh


Summary of corrections to the electronic energy:
(perhaps to be used in another calculation)
Total thermal correction                  0.00286152 Eh       1.80 kcal/mol
Non-thermal (ZPE) correction              0.03052314 Eh      19.15 kcal/mol
-----------------------------------------------------------------------
Total correction                          0.03338466 Eh      20.95 kcal/mol


--------
ENTHALPY
--------

The enthalpy is H = U + kB*T
                kB is Boltzmann's constant
Total free energy                 ...    -39.78682613 Eh 
Thermal Enthalpy correction       ...      0.00094421 Eh       0.59 kcal/mol
-----------------------------------------------------------------------
Total Enthalpy                    ...    -39.78588192 Eh


Note: Rotational entropy computed according to Herzberg 
Infrared and Raman Spectra, Chapter V,1, Van Nostrand Reinhold, 1945 
Point Group:  C3v, Symmetry Number:   3  
Rotational constants in cm-1:     8.512507     8.511998     5.558993 

Vibrational entropy computed according to the QRRHO of S. Grimme
Chem.Eur.J. 2012 18 9955


-------
ENTROPY
-------

The entropy contributions are T*S = T*(S(el)+S(vib)+S(rot)+S(trans))
     S(el)   - electronic entropy
     S(vib)  - vibrational entropy
     S(rot)  - rotational entropy
     S(trans)- translational entropy
The entropies will be listed as multiplied by the temperature to get
units of energy

Electronic entropy                ...      0.00065446 Eh      0.41 kcal/mol
Vibrational entropy               ...      0.00003355 Eh      0.02 kcal/mol
Rotational entropy                ...      0.00564172 Eh      3.54 kcal/mol
Translational entropy             ...      0.01618771 Eh     10.16 kcal/mol
-----------------------------------------------------------------------
Final entropy term                ...      0.02251743 Eh     14.13 kcal/mol

In case the symmetry of your molecule has not been determined correctly
or in case you have a reason to use a different symmetry number we print 
out the resulting rotational entropy values for sn=1,12 :
 --------------------------------------------------------
|  sn= 1 | S(rot)=       0.00667901 Eh      4.19 kcal/mol|
|  sn= 2 | S(rot)=       0.00602455 Eh      3.78 kcal/mol|
|  sn= 3 | S(rot)=       0.00564172 Eh      3.54 kcal/mol|
|  sn= 4 | S(rot)=       0.00537010 Eh      3.37 kcal/mol|
|  sn= 5 | S(rot)=       0.00515941 Eh      3.24 kcal/mol|
|  sn= 6 | S(rot)=       0.00498726 Eh      3.13 kcal/mol|
|  sn= 7 | S(rot)=       0.00484172 Eh      3.04 kcal/mol|
|  sn= 8 | S(rot)=       0.00471564 Eh      2.96 kcal/mol|
|  sn= 9 | S(rot)=       0.00460443 Eh      2.89 kcal/mol|
|  sn=10 | S(rot)=       0.00450495 Eh      2.83 kcal/mol|
|  sn=11 | S(rot)=       0.00441496 Eh      2.77 kcal/mol|
|  sn=12 | S(rot)=       0.00433281 Eh      2.72 kcal/mol|
 --------------------------------------------------------


-------------------
GIBBS FREE ENERGY
-------------------

The Gibbs free energy is G = H - T*S

Total enthalpy                    ...    -39.78588192 Eh 
Total entropy correction          ...     -0.02251743 Eh    -14.13 kcal/mol
-----------------------------------------------------------------------
Final Gibbs free energy         ...    -39.80839935 Eh

For completeness - the Gibbs free energy minus the electronic energy
G-E(el)                           ...      0.01181144 Eh      7.41 kcal/mol


Timings for individual modules:

Sum of individual times         ...       74.454 sec (=   1.241 min)
GTO integral calculation        ...        9.291 sec (=   0.155 min)  12.5 %
SCF iterations                  ...       47.738 sec (=   0.796 min)  64.1 %
SCF Gradient evaluation         ...        6.648 sec (=   0.111 min)   8.9 %
Geometry relaxation             ...        0.169 sec (=   0.003 min)   0.2 %
Analytical frequency calculation...       10.608 sec (=   0.177 min)  14.2 %
                             ****ORCA TERMINATED NORMALLY****
TOTAL RUN TIME: 0 days 0 hours 1 minutes 23 seconds 415 msec

slurmID:    32260101
totalRuntime[s]:    83.458380819
