
                                 *****************
                                 * O   R   C   A *
                                 *****************

                                            #,                                       
                                            ###                                      
                                            ####                                     
                                            #####                                    
                                            ######                                   
                                           ########,                                 
                                     ,,################,,,,,                         
                               ,,#################################,,                 
                          ,,##########################################,,             
                       ,#########################################, ''#####,          
                    ,#############################################,,   '####,        
                  ,##################################################,,,,####,       
                ,###########''''           ''''###############################       
              ,#####''   ,,,,##########,,,,          '''####'''          '####       
            ,##' ,,,,###########################,,,                        '##       
           ' ,,###''''                  '''############,,,                           
         ,,##''                                '''############,,,,        ,,,,,,###''
      ,#''                                            '''#######################'''  
     '                                                          ''''####''''         
             ,#######,   #######,   ,#######,      ##                                
            ,#'     '#,  ##    ##  ,#'     '#,    #''#        ######   ,####,        
            ##       ##  ##   ,#'  ##            #'  '#       #        #'  '#        
            ##       ##  #######   ##           ,######,      #####,   #    #        
            '#,     ,#'  ##    ##  '#,     ,#' ,#      #,         ##   #,  ,#        
             '#######'   ##     ##  '#######'  #'      '#     #####' # '####'        



                  #######################################################
                  #                        -***-                        #
                  #          Department of theory and spectroscopy      #
                  #    Directorship and core code : Frank Neese         #
                  #        Max Planck Institute fuer Kohlenforschung    #
                  #                Kaiser Wilhelm Platz 1               #
                  #                 D-45470 Muelheim/Ruhr               #
                  #                      Germany                        #
                  #                                                     #
                  #                  All rights reserved                #
                  #                        -***-                        #
                  #######################################################


                         Program Version 5.0.4 -  RELEASE  -


 With contributions from (in alphabetic order):
   Daniel Aravena         : Magnetic Suceptibility
   Michael Atanasov       : Ab Initio Ligand Field Theory (pilot matlab implementation)
   Alexander A. Auer      : GIAO ZORA, VPT2 properties, NMR spectrum
   Ute Becker             : Parallelization
   Giovanni Bistoni       : ED, misc. LED, open-shell LED, HFLD
   Martin Brehm           : Molecular dynamics
   Dmytro Bykov           : SCF Hessian
   Vijay G. Chilkuri      : MRCI spin determinant printing, contributions to CSF-ICE
   Dipayan Datta          : RHF DLPNO-CCSD density
   Achintya Kumar Dutta   : EOM-CC, STEOM-CC
   Dmitry Ganyushin       : Spin-Orbit,Spin-Spin,Magnetic field MRCI
   Miquel Garcia          : C-PCM and meta-GGA Hessian, CC/C-PCM, Gaussian charge scheme
   Yang Guo               : DLPNO-NEVPT2, F12-NEVPT2, CIM, IAO-localization
   Andreas Hansen         : Spin unrestricted coupled pair/coupled cluster methods
   Benjamin Helmich-Paris : MC-RPA, TRAH-SCF, COSX integrals
   Lee Huntington         : MR-EOM, pCC
   Robert Izsak           : Overlap fitted RIJCOSX, COSX-SCS-MP3, EOM
   Marcus Kettner         : VPT2
   Christian Kollmar      : KDIIS, OOCD, Brueckner-CCSD(T), CCSD density, CASPT2, CASPT2-K
   Simone Kossmann        : Meta GGA functionals, TD-DFT gradient, OOMP2, MP2 Hessian
   Martin Krupicka        : Initial AUTO-CI
   Lucas Lang             : DCDCAS
   Marvin Lechner         : AUTO-CI (C++ implementation), FIC-MRCC
   Dagmar Lenk            : GEPOL surface, SMD
   Dimitrios Liakos       : Extrapolation schemes; Compound Job, initial MDCI parallelization
   Dimitrios Manganas     : Further ROCIS development; embedding schemes
   Dimitrios Pantazis     : SARC Basis sets
   Anastasios Papadopoulos: AUTO-CI, single reference methods and gradients
   Taras Petrenko         : DFT Hessian,TD-DFT gradient, ASA, ECA, R-Raman, ABS, FL, XAS/XES, NRVS
   Peter Pinski           : DLPNO-MP2, DLPNO-MP2 Gradient
   Christoph Reimann      : Effective Core Potentials
   Marius Retegan         : Local ZFS, SOC
   Christoph Riplinger    : Optimizer, TS searches, QM/MM, DLPNO-CCSD(T), (RO)-DLPNO pert. Triples
   Tobias Risthaus        : Range-separated hybrids, TD-DFT gradient, RPA, STAB
   Michael Roemelt        : Original ROCIS implementation
   Masaaki Saitow         : Open-shell DLPNO-CCSD energy and density
   Barbara Sandhoefer     : DKH picture change effects
   Avijit Sen             : IP-ROCIS
   Kantharuban Sivalingam : CASSCF convergence, NEVPT2, FIC-MRCI
   Bernardo de Souza      : ESD, SOC TD-DFT
   Georgi Stoychev        : AutoAux, RI-MP2 NMR, DLPNO-MP2 response
   Willem Van den Heuvel  : Paramagnetic NMR
   Boris Wezisla          : Elementary symmetry handling
   Frank Wennmohs         : Technical directorship


 We gratefully acknowledge several colleagues who have allowed us to
 interface, adapt or use parts of their codes:
   Stefan Grimme, W. Hujo, H. Kruse, P. Pracht,  : VdW corrections, initial TS optimization,
                  C. Bannwarth, S. Ehlert          DFT functionals, gCP, sTDA/sTD-DF
   Ed Valeev, F. Pavosevic, A. Kumar             : LibInt (2-el integral package), F12 methods
   Garnet Chan, S. Sharma, J. Yang, R. Olivares  : DMRG
   Ulf Ekstrom                                   : XCFun DFT Library
   Mihaly Kallay                                 : mrcc  (arbitrary order and MRCC methods)
   Jiri Pittner, Ondrej Demel                    : Mk-CCSD
   Frank Weinhold                                : gennbo (NPA and NBO analysis)
   Christopher J. Cramer and Donald G. Truhlar   : smd solvation model
   Lars Goerigk                                  : TD-DFT with DH, B97 family of functionals
   V. Asgeirsson, H. Jonsson                     : NEB implementation
   FAccTs GmbH                                   : IRC, NEB, NEB-TS, DLPNO-Multilevel, CI-OPT
                                                   MM, QMMM, 2- and 3-layer-ONIOM, Crystal-QMMM,
                                                   LR-CPCM, SF, NACMEs, symmetry and pop. for TD-DFT,
                                                   nearIR, NL-DFT gradient (VV10), updates on ESD,
                                                   ML-optimized integration grids
   S Lehtola, MJT Oliveira, MAL Marques          : LibXC Library
   Liviu Ungur et al                             : ANISO software


 Your calculation uses the libint2 library for the computation of 2-el integrals
 For citations please refer to: http://libint.valeyev.net

 Your ORCA version has been built with support for libXC version: 5.1.0
 For citations please refer to: https://tddft.org/programs/libxc/

 This ORCA versions uses:
   CBLAS   interface :  Fast vector & matrix operations
   LAPACKE interface :  Fast linear algebra routines
   SCALAPACK package :  Parallel linear algebra routines
   Shared memory     :  Shared parallel matrices
   BLAS/LAPACK       :  OpenBLAS 0.3.15  USE64BITINT DYNAMIC_ARCH NO_AFFINITY SkylakeX SINGLE_THREADED
        Core in use  :  SkylakeX
   Copyright (c) 2011-2014, The OpenBLAS Project


Your calculation utilizes the atom-pairwise dispersion correction
with the zero-damping scheme (D30)
Cite in your paper:
S.Grimme, J.Antony, S.Ehrlich and H.Krieg, J.Chem.Phys., 132, (2010), 154104 
   

XCFun DFT library Copyright 2009-2010 Ulf Ekstrom and contributors.
See http://admol.org/xcfun for more information.
This is free software; see the source code for copying conditions.
There is ABSOLUTELY NO WARRANTY; not even for MERCHANTABILITY or FITNESS FOR A PARTICULAR PURPOSE.
For details see the documentation.
Scientific users of this library should cite U. Ekstrom, L. Visscher, R. Bast, A. J. Thorvaldsen and K. Ruud;
J.Chem.Theor.Comp. 2010, DOI: 10.1021/ct100117s
XCFun Version 0.99 

================================================================================

----- Orbital basis set information -----
Your calculation utilizes the basis: def2-TZVPD
   F. Weigend and R. Ahlrichs, Phys. Chem. Chem. Phys. 7, 3297 (2005).
   D. Rappoport and F. Furche, J. Chem. Phys. 133 134105 (2010).

----- AuxJ basis set information -----
Your calculation utilizes the auxiliary basis: def2/J
   F. Weigend, Phys. Chem. Chem. Phys. 8, 1057 (2006).

================================================================================
                                        WARNINGS
                       Please study these warnings very carefully!
================================================================================


WARNING: Geometry Optimization
  ===> : Switching off AutoStart
         For restart on a previous wavefunction, please use MOREAD

INFO   : the flag for use of the SHARK integral package has been found!

================================================================================
                                       INPUT FILE
================================================================================
NAME = /beegfs/scratch/ispackman/PFAS_EPR_calcs/benchmark/JChemEd_CF3_radical/CH3_radical_106.5_degrees_IN-PROGRESS/CH3_radical_106.5_degrees.inp
|  1> ! UKS TightSCF wB97x-D3 def2-TZVPD xyzfile opt freq
|  2> 
|  3> # CH3 radical 106.5 degrees fixed
|  4> 
|  5> %maxcore 1000
|  6> %pal
|  7> nprocs 18
|  8> end
|  9> 
| 10> %geom Constraints
| 11>         { A * 0 * C }
| 12>     end
| 13> end
| 14> * xyz 0 2
| 15> C 0.00 0.00 0.00
| 16> H 0.9992248656 0.0000000000 -0.4098166272
| 17> H -0.4996124328 0.8653541177 -0.4098166272
| 18> H -0.4996124328 -0.8653541177 -0.4098166272
| 19> **                         ****END OF INPUT****
================================================================================

                       *****************************
                       * Geometry Optimization Run *
                       *****************************

Geometry optimization settings:
Update method            Update   .... BFGS
Choice of coordinates    CoordSys .... Z-matrix Internals
Initial Hessian          InHess   .... Almoef's Model

Convergence Tolerances:
Energy Change            TolE     ....  5.0000e-06 Eh
Max. Gradient            TolMAXG  ....  3.0000e-04 Eh/bohr
RMS Gradient             TolRMSG  ....  1.0000e-04 Eh/bohr
Max. Displacement        TolMAXD  ....  4.0000e-03 bohr
RMS Displacement         TolRMSD  ....  2.0000e-03 bohr
Strict Convergence                ....  False
------------------------------------------------------------------------------
                        ORCA OPTIMIZATION COORDINATE SETUP
------------------------------------------------------------------------------

The optimization will be done in new redundant internal coordinates
Making redundant internal coordinates   ...  (new redundants) done
Evaluating the initial hessian          ...  (Almloef) done
Evaluating the coordinates              ...  done
Calculating the B-matrix                .... done
Calculating the G-matrix                .... done
Diagonalizing the G-matrix              .... done
Imposing constraints:
 Iter   0:  RMS(Cart)=    0.0000000000 RMS(Int)=    0.0000000000
CONVERGED
Will constrain atom 0 coordinate 1 
Will constrain atom 0 coordinate 2 
Will constrain atom 1 coordinate 2 
The first mode is                       ....    1
The number of degrees of freedom        ....    6
Storing new coordinates                 .... done

    -----------------------------------------------------------------
                    Redundant Internal Coordinates


    -----------------------------------------------------------------
         Definition                    Initial Value    Approx d2E/dq
    -----------------------------------------------------------------
      1. B(H   1,C   0)                  1.0800         0.373575   
      2. B(H   2,C   0)                  1.0800         0.373575   
      3. B(H   3,C   0)                  1.0800         0.373575   
      4. A(H   2,C   0,H   3)          106.5000         0.294224 C 
      5. A(H   1,C   0,H   2)          106.5000         0.294224 C 
      6. A(H   1,C   0,H   3)          106.5000         0.294224 C 
      7. I(H   1,H   3,H   2,C   0)     61.6612         0.003542   
    -----------------------------------------------------------------

Number of atoms                         .... 4
Number of degrees of freedom            .... 7

         *************************************************************
         *                GEOMETRY OPTIMIZATION CYCLE   1            *
         *************************************************************
---------------------------------
CARTESIAN COORDINATES (ANGSTROEM)
---------------------------------
  C      0.000000    0.000000    0.000000
  H      0.999225    0.000000   -0.409817
  H     -0.499612    0.865354   -0.409817
  H     -0.499612   -0.865354   -0.409817

----------------------------
CARTESIAN COORDINATES (A.U.)
----------------------------
  NO LB      ZA    FRAG     MASS         X           Y           Z
   0 C     6.0000    0    12.011    0.000000    0.000000    0.000000
   1 H     1.0000    0     1.008    1.888261    0.000000   -0.774441
   2 H     1.0000    0     1.008   -0.944131    1.635282   -0.774441
   3 H     1.0000    0     1.008   -0.944131   -1.635282   -0.774441

--------------------------------
INTERNAL COORDINATES (ANGSTROEM)
--------------------------------
 C      0   0   0     0.000000000000     0.00000000     0.00000000
 H      1   0   0     1.079999999983     0.00000000     0.00000000
 H      1   2   0     1.079999999981   106.50000000     0.00000000
 H      1   2   3     1.079999999981   106.50000000   113.37066637

---------------------------
INTERNAL COORDINATES (A.U.)
---------------------------
 C      0   0   0     0.000000000000     0.00000000     0.00000000
 H      1   0   0     2.040904224603     0.00000000     0.00000000
 H      1   2   0     2.040904224598   106.50000000     0.00000000
 H      1   2   3     2.040904224598   106.50000000   113.37066637

---------------------
BASIS SET INFORMATION
---------------------
There are 2 groups of distinct atoms

 Group   1 Type C   : 12s6p3d1f contracted to 6s3p3d1f pattern {621111/411/111/1}
 Group   2 Type H   : 5s2p contracted to 3s2p pattern {311/11}

Atom   0C    basis set group =>   1
Atom   1H    basis set group =>   2
Atom   2H    basis set group =>   2
Atom   3H    basis set group =>   2
---------------------------------
AUXILIARY/J BASIS SET INFORMATION
---------------------------------
There are 2 groups of distinct atoms

 Group   1 Type C   : 12s5p4d2f1g contracted to 6s4p3d1f1g pattern {711111/2111/211/2/1}
 Group   2 Type H   : 5s2p1d contracted to 3s1p1d pattern {311/2/1}

Atom   0C    basis set group =>   1
Atom   1H    basis set group =>   2
Atom   2H    basis set group =>   2
Atom   3H    basis set group =>   2


           ************************************************************
           *        Program running with 18 parallel MPI-processes    *
           *              working on a common directory               *
           ************************************************************
------------------------------------------------------------------------------
                           ORCA GTO INTEGRAL CALCULATION
                           -- RI-GTO INTEGRALS CHOSEN --
------------------------------------------------------------------------------
------------------------------------------------------------------------------
                   ___                                                        
                  /   \      - P O W E R E D   B Y -                         
                 /     \                                                     
                 |  |  |   _    _      __       _____    __    __             
                 |  |  |  | |  | |    /  \     |  _  \  |  |  /  |          
                  \  \/   | |  | |   /    \    | | | |  |  | /  /          
                 / \  \   | |__| |  /  /\  \   | |_| |  |  |/  /          
                |  |  |   |  __  | /  /__\  \  |    /   |      \           
                |  |  |   | |  | | |   __   |  |    \   |  |\   \          
                \     /   | |  | | |  |  |  |  | |\  \  |  | \   \       
                 \___/    |_|  |_| |__|  |__|  |_| \__\ |__|  \__/        
                                                                              
                      - O R C A' S   B I G   F R I E N D -                    
                                      &                                       
                       - I N T E G R A L  F E E D E R -                       
                                                                              
 v1 FN, 2020, v2 2021                                                         
------------------------------------------------------------------------------


Reading SHARK input file /beegfs/scratch/ispackman/PFAS_EPR_calcs/benchmark/JChemEd_CF3_radical/CH3_radical_106.5_degrees_IN-PROGRESS/CH3_radical_106.5_degrees.SHARKINP.tmp ... ok
----------------------
SHARK INTEGRAL PACKAGE
----------------------

Number of atoms                             ...      4
Number of basis functions                   ...     64
Number of shells                            ...     28
Maximum angular momentum                    ...      3
Integral batch strategy                     ... SHARK/LIBINT Hybrid
RI-J (if used) integral strategy            ... SPLIT-RIJ (Revised 2003 algorithm where possible)
Printlevel                                  ...      1
Contraction scheme used                     ... SEGMENTED contraction
Coulomb Range Separation                    ... NOT USED
Exchange Range Separation                   ... Long Range
   Mu parameter                             ...  0.250000
   Scaling (regular/separated)              ...  0.195728  0.804272
Finite Nucleus Model                        ... NOT USED
Auxiliary Coulomb fitting basis             ... AVAILABLE
   # of basis functions in Aux-J            ...     82
   # of shells in Aux-J                     ...     30
   Maximum angular momentum in Aux-J        ...      4
Auxiliary J/K fitting basis                 ... NOT available
Auxiliary Correlation fitting basis         ... NOT available
Auxiliary 'external' fitting basis          ... NOT available
Integral threshold                          ...     2.500000e-11
Primitive cut-off                           ...     2.500000e-12
Primitive pair pre-selection threshold      ...     2.500000e-12

Calculating pre-screening integrals         ... done (  0.0 sec) Dimension = 28
Organizing shell pair data                  ... done (  0.0 sec)
Shell pair information
Total number of shell pairs                 ...       406
Shell pairs after pre-screening             ...       406
Total number of primitive shell pairs       ...       977
Primitive shell pairs kept                  ...       947
          la=0 lb=0:    120 shell pairs
          la=1 lb=0:    135 shell pairs
          la=1 lb=1:     45 shell pairs
          la=2 lb=0:     45 shell pairs
          la=2 lb=1:     27 shell pairs
          la=2 lb=2:      6 shell pairs
          la=3 lb=0:     15 shell pairs
          la=3 lb=1:      9 shell pairs
          la=3 lb=2:      3 shell pairs
          la=3 lb=3:      1 shell pairs

Calculating one electron integrals          ... done (  0.0 sec)
Calculating RI/J V-Matrix + Cholesky decomp.... done (  0.1 sec)
Calculating Nuclear repulsion               ... done (  0.0 sec) ENN=      9.736892959187 Eh

SHARK setup successfully completed in   0.3 seconds

Maximum memory used throughout the entire GTOINT-calculation: 14.0 MB


           ************************************************************
           *        Program running with 18 parallel MPI-processes    *
           *              working on a common directory               *
           ************************************************************
-------------------------------------------------------------------------------
                                 ORCA SCF
-------------------------------------------------------------------------------

------------
SCF SETTINGS
------------
Hamiltonian:
 Density Functional     Method          .... DFT(GTOs)
 Exchange Functional    Exchange        .... WB97X-D3
 Correlation Functional Correlation     .... WB97X-D3
 Gradients option       PostSCFGGA      .... off
 Hybrid DFT is turned on
   Fraction HF Exchange ScalHFX         ....  0.195728
   Scaling of DF-GGA-X  ScalDFX         ....  0.000000
   Scaling of DF-GGA-C  ScalDFC         ....  1.000000
   Scaling of DF-LDA-C  ScalLDAC        ....  1.000000
   Perturbative correction              ....  0.000000
   Density functional embedding theory  .... OFF
 Long-range corrected/Screened/Range-Separated Hybrid DFT is turned on
   Amount of maximum screened exact exchange              ....  0.804272
   Range separation parameter mu (erf(mu*r12)/r12)        ....  0.250000
 RI-approximation to the Coulomb term is turned on
   Number of AuxJ basis functions       .... 82
   RIJ-COSX (HFX calculated with COS-X)).... on


General Settings:
 Integral files         IntName         .... /beegfs/scratch/ispackman/PFAS_EPR_calcs/benchmark/JChemEd_CF3_radical/CH3_radical_106.5_degrees_IN-PROGRESS/CH3_radical_106.5_degrees
 Hartree-Fock type      HFTyp           .... UHF
 Total Charge           Charge          ....    0
 Multiplicity           Mult            ....    2
 Number of Electrons    NEL             ....    9
 Basis Dimension        Dim             ....   64
 Nuclear Repulsion      ENuc            ....      9.7368929592 Eh

Convergence Acceleration:
 DIIS                   CNVDIIS         .... on
   Start iteration      DIISMaxIt       ....    12
   Startup error        DIISStart       ....  0.200000
   # of expansion vecs  DIISMaxEq       ....     5
   Bias factor          DIISBfac        ....   1.050
   Max. coefficient     DIISMaxC        ....  10.000
 Trust-Rad. Augm. Hess. CNVTRAH         .... auto
   Auto Start mean grad. ratio tolernc. ....  1.125000
   Auto Start start iteration           ....    20
   Auto Start num. interpolation iter.  ....    10
   Max. Number of Micro iterations      ....    16
   Max. Number of Macro iterations      .... Maxiter - #DIIS iter
   Number of Davidson start vectors     ....     2
   Converg. threshold I  (grad. norm)   ....   1.000e-05
   Converg. threshold II (energy diff.) ....   1.000e-08
   Grad. Scal. Fac. for Micro threshold ....   0.100
   Minimum threshold for Micro iter.    ....   0.010
   NR start threshold (gradient norm)   ....   0.001
   Initial trust radius                 ....   0.400
   Minimum AH scaling param. (alpha)    ....   1.000
   Maximum AH scaling param. (alpha)    .... 1000.000
   Orbital update algorithm             .... Taylor
   White noise on init. David. guess    .... on
   Maximum white noise                  ....   0.010
   Quad. conv. algorithm                .... NR
 SOSCF                  CNVSOSCF        .... off
 Level Shifting         CNVShift        .... on
   Level shift para.    LevelShift      ....    0.2500
   Turn off err/grad.   ShiftErr        ....    0.0010
 Zerner damping         CNVZerner       .... off
 Static damping         CNVDamp         .... on
   Fraction old density DampFac         ....    0.7000
   Max. Damping (<1)    DampMax         ....    0.9800
   Min. Damping (>=0)   DampMin         ....    0.0000
   Turn off err/grad.   DampErr         ....    0.1000
 Fernandez-Rico         CNVRico         .... off

SCF Procedure:
 Maximum # iterations   MaxIter         ....   125
 SCF integral mode      SCFMode         .... Direct
   Integral package                     .... SHARK and LIBINT hybrid scheme
 Reset frequency        DirectResetFreq ....    20
 Integral Threshold     Thresh          ....  2.500e-11 Eh
 Primitive CutOff       TCut            ....  2.500e-12 Eh

Convergence Tolerance:
 Convergence Check Mode ConvCheckMode   .... Total+1el-Energy
 Convergence forced     ConvForced      .... 0
 Energy Change          TolE            ....  1.000e-08 Eh
 1-El. energy change                    ....  1.000e-05 Eh
 DIIS Error             TolErr          ....  5.000e-07


Diagonalization of the overlap matrix:
Smallest eigenvalue                        ... 4.809e-05
Time for diagonalization                   ...    0.002 sec
Threshold for overlap eigenvalues          ... 1.000e-08
Number of eigenvalues below threshold      ... 0
Time for construction of square roots      ...    0.015 sec
Total time needed                          ...    0.018 sec

Time for model grid setup =    0.036 sec

------------------------------
INITIAL GUESS: MODEL POTENTIAL
------------------------------
Loading Hartree-Fock densities                     ... done
Calculating cut-offs                               ... done
Initializing the effective Hamiltonian             ... done
Setting up the integral package (SHARK)            ... done
Starting the Coulomb interaction                   ... done (   0.1 sec)
Reading the grid                                   ... done
Mapping shells                                     ... done
Starting the XC term evaluation                    ... done (   0.0 sec)
  promolecular density results
     # of electrons  =      8.997957135
     EX              =     -5.934869321
     EC              =     -0.259748887
     EX+EC           =     -6.194618208
Transforming the Hamiltonian                       ... done (   0.0 sec)
Diagonalizing the Hamiltonian                      ... done (   0.0 sec)
Back transforming the eigenvectors                 ... done (   0.0 sec)
Now organizing SCF variables                       ... done
                      ------------------
                      INITIAL GUESS DONE (   0.1 sec)
                      ------------------
-------------------
DFT GRID GENERATION
-------------------

General Integration Accuracy     IntAcc      ... 4.388
Radial Grid Type                 RadialGrid  ... OptM3 with GC (2021)
Angular Grid (max. ang.)         AngularGrid ... 4 (Lebedev-302)
Angular grid pruning method      GridPruning ... 4 (adaptive)
Weight generation scheme         WeightScheme... Becke
Basis function cutoff            BFCut       ... 1.0000e-11
Integration weight cutoff        WCut        ... 1.0000e-14
Angular grids for H and He will be reduced by one unit
Partially contracted basis set               ... off
Rotationally invariant grid construction     ... off

Total number of grid points                  ...    17050
Total number of batches                      ...      268
Average number of points per batch           ...       63
Average number of grid points per atom       ...     4262
Time for grid setup =    0.101 sec

--------------------
COSX GRID GENERATION
--------------------

GRIDX 1
-------
General Integration Accuracy     IntAcc      ... 3.816
Radial Grid Type                 RadialGrid  ... OptM3 with GC (2021)
Angular Grid (max. ang.)         AngularGrid ... 1 (Lebedev-50)
Angular grid pruning method      GridPruning ... 4 (adaptive)
Weight generation scheme         WeightScheme... Becke
Basis function cutoff            BFCut       ... 1.0000e-11
Integration weight cutoff        WCut        ... 1.0000e-14
Angular grids for H and He will be reduced by one unit
Partially contracted basis set               ... on
Rotationally invariant grid construction     ... off

Total number of grid points                  ...     2151
Total number of batches                      ...       36
Average number of points per batch           ...       59
Average number of grid points per atom       ...      538
UseSFitting                                  ... on

GRIDX 2
-------
General Integration Accuracy     IntAcc      ... 4.020
Radial Grid Type                 RadialGrid  ... OptM3 with GC (2021)
Angular Grid (max. ang.)         AngularGrid ... 2 (Lebedev-110)
Angular grid pruning method      GridPruning ... 4 (adaptive)
Weight generation scheme         WeightScheme... Becke
Basis function cutoff            BFCut       ... 1.0000e-11
Integration weight cutoff        WCut        ... 1.0000e-14
Angular grids for H and He will be reduced by one unit
Partially contracted basis set               ... on
Rotationally invariant grid construction     ... off

Total number of grid points                  ...     5040
Total number of batches                      ...       81
Average number of points per batch           ...       62
Average number of grid points per atom       ...     1260
UseSFitting                                  ... on

GRIDX 3
-------
General Integration Accuracy     IntAcc      ... 4.338
Radial Grid Type                 RadialGrid  ... OptM3 with GC (2021)
Angular Grid (max. ang.)         AngularGrid ... 3 (Lebedev-194)
Angular grid pruning method      GridPruning ... 4 (adaptive)
Weight generation scheme         WeightScheme... Becke
Basis function cutoff            BFCut       ... 1.0000e-11
Integration weight cutoff        WCut        ... 1.0000e-14
Angular grids for H and He will be reduced by one unit
Partially contracted basis set               ... on
Rotationally invariant grid construction     ... off

Total number of grid points                  ...    11707
Total number of batches                      ...      185
Average number of points per batch           ...       63
Average number of grid points per atom       ...     2927
UseSFitting                                  ... on

Time for X-Grid setup             =    0.270 sec

--------------
SCF ITERATIONS
--------------
ITER       Energy         Delta-E        Max-DP      RMS-DP      [F,P]     Damp
               ***  Starting incremental Fock matrix formation  ***
  0    -39.7865093963   0.000000000000 0.04831296  0.00103932  0.0770397 0.7000
  1    -39.8002036654  -0.013694269092 0.04662216  0.00092540  0.0493505 0.7000
                               ***Turning on DIIS***
  2    -39.8079255234  -0.007721857984 0.10389192  0.00207544  0.0284192 0.0000
  3    -39.8212346035  -0.013309080091 0.02935031  0.00060156  0.0193804 0.0000
  4    -39.8227930684  -0.001558464924 0.01111074  0.00019664  0.0034316 0.0000
  5    -39.8228597240  -0.000066655625 0.00948909  0.00016186  0.0016028 0.0000
  6    -39.8228806461  -0.000020922109 0.00971348  0.00016129  0.0006252 0.0000
               *** Restarting incremental Fock matrix formation ***
                                   *** Resetting DIIS ***
  7    -39.8228936082  -0.000012962035 0.00118708  0.00001939  0.0000809 0.0000
  8    -39.8228937397  -0.000000131580 0.00061058  0.00001014  0.0000350 0.0000
  9    -39.8228937767  -0.000000036981 0.00001848  0.00000074  0.0000137 0.0000
 10    -39.8228937786  -0.000000001907 0.00000672  0.00000022  0.0000053 0.0000
                 **** Energy Check signals convergence ****

               *****************************************************
               *                     SUCCESS                       *
               *           SCF CONVERGED AFTER  11 CYCLES          *
               *****************************************************

Old exchange energy                            =     -2.173869042 Eh
New exchange energy                            =     -2.173873243 Eh
Exchange energy change after final integration =     -0.000004201 Eh
Total energy after final integration           =    -39.822897980 Eh
Final COS-X integration done in                =     0.123 sec

----------------
TOTAL SCF ENERGY
----------------

Total Energy       :          -39.82289798 Eh           -1083.63615 eV

Components:
Nuclear Repulsion  :            9.73689296 Eh             264.95433 eV
Electronic Energy  :          -49.55979094 Eh           -1348.59047 eV
One Electron Energy:          -71.74399578 Eh           -1952.25338 eV
Two Electron Energy:           22.18420484 Eh             603.66290 eV
Max COSX asymmetry :            0.00000016 Eh               0.00000 eV

Virial components:
Potential Energy   :          -79.48122302 Eh           -2162.79403 eV
Kinetic Energy     :           39.65832504 Eh            1079.15789 eV
Virial Ratio       :            2.00414977


DFT components:
N(Alpha)           :        4.999998971895 electrons
N(Beta)            :        4.000000785943 electrons
N(Total)           :        8.999999757837 electrons
E(XC)              :       -4.316150099701 Eh       
DFET-embed. en.    :        0.000000000000 Eh       

---------------
SCF CONVERGENCE
---------------

  Last Energy change         ...    3.2671e-11  Tolerance :   1.0000e-08
  Last MAX-Density change    ...    0.0000e+00  Tolerance :   1.0000e-07
  Last RMS-Density change    ...    0.0000e+00  Tolerance :   5.0000e-09
  Last DIIS Error            ...    1.2911e-06  Tolerance :   5.0000e-07

             **** THE GBW FILE WAS UPDATED (/beegfs/scratch/ispackman/PFAS_EPR_calcs/benchmark/JChemEd_CF3_radical/CH3_radical_106.5_degrees_IN-PROGRESS/CH3_radical_106.5_degrees.gbw) ****
             **** DENSITY /beegfs/scratch/ispackman/PFAS_EPR_calcs/benchmark/JChemEd_CF3_radical/CH3_radical_106.5_degrees_IN-PROGRESS/CH3_radical_106.5_degrees.scfp WAS UPDATED ****
             **** ENERGY FILE WAS UPDATED (/beegfs/scratch/ispackman/PFAS_EPR_calcs/benchmark/JChemEd_CF3_radical/CH3_radical_106.5_degrees_IN-PROGRESS/CH3_radical_106.5_degrees.en.tmp) ****
----------------------
UHF SPIN CONTAMINATION
----------------------

Warning: in a DFT calculation there is little theoretical justification to 
         calculate <S**2> as in Hartree-Fock theory. We will do it anyways
         but you should keep in mind that the values have only limited relevance

Expectation value of <S**2>     :     0.752943
Ideal value S*(S+1) for S=0.5   :     0.750000
Deviation                       :     0.002943

             **** THE GBW FILE WAS UPDATED (/beegfs/scratch/ispackman/PFAS_EPR_calcs/benchmark/JChemEd_CF3_radical/CH3_radical_106.5_degrees_IN-PROGRESS/CH3_radical_106.5_degrees.gbw) ****
             **** DENSITY /beegfs/scratch/ispackman/PFAS_EPR_calcs/benchmark/JChemEd_CF3_radical/CH3_radical_106.5_degrees_IN-PROGRESS/CH3_radical_106.5_degrees.scfp WAS UPDATED ****
----------------
ORBITAL ENERGIES
----------------
                 SPIN UP ORBITALS
  NO   OCC          E(Eh)            E(eV) 
   0   1.0000     -10.291768      -280.0532 
   1   1.0000      -0.813403       -22.1338 
   2   1.0000      -0.504167       -13.7191 
   3   1.0000      -0.504139       -13.7183 
   4   1.0000      -0.367821       -10.0089 
   5   0.0000       0.075937         2.0663 
   6   0.0000       0.161562         4.3963 
   7   0.0000       0.161571         4.3966 
   8   0.0000       0.189627         5.1600 
   9   0.0000       0.195592         5.3223 
  10   0.0000       0.195593         5.3223 
  11   0.0000       0.226191         6.1550 
  12   0.0000       0.253761         6.9052 
  13   0.0000       0.253764         6.9053 
  14   0.0000       0.313938         8.5427 
  15   0.0000       0.356713         9.7066 
  16   0.0000       0.356724         9.7070 
  17   0.0000       0.365013         9.9325 
  18   0.0000       0.375787        10.2257 
  19   0.0000       0.384844        10.4721 
  20   0.0000       0.384848        10.4722 
  21   0.0000       0.407467        11.0877 
  22   0.0000       0.407475        11.0879 
  23   0.0000       0.530126        14.4255 
  24   0.0000       0.555705        15.1215 
  25   0.0000       0.555712        15.1217 
  26   0.0000       0.580860        15.8060 
  27   0.0000       0.782666        21.2974 
  28   0.0000       0.794393        21.6165 
  29   0.0000       0.794397        21.6166 
  30   0.0000       0.874046        23.7840 
  31   0.0000       0.874049        23.7841 
  32   0.0000       0.994918        27.0731 
  33   0.0000       1.148006        31.2388 
  34   0.0000       1.148024        31.2393 
  35   0.0000       1.634809        44.4854 
  36   0.0000       1.726985        46.9937 
  37   0.0000       1.750525        47.6342 
  38   0.0000       1.750569        47.6354 
  39   0.0000       1.770547        48.1790 
  40   0.0000       1.929926        52.5160 
  41   0.0000       1.929969        52.5171 
  42   0.0000       2.197228        59.7896 
  43   0.0000       2.281766        62.0900 
  44   0.0000       2.290230        62.3203 
  45   0.0000       2.290314        62.3226 
  46   0.0000       2.587271        70.4032 
  47   0.0000       2.587278        70.4034 
  48   0.0000       2.722480        74.0824 
  49   0.0000       2.722530        74.0838 
  50   0.0000       2.866660        78.0058 
  51   0.0000       3.005481        81.7833 
  52   0.0000       3.159348        85.9702 
  53   0.0000       3.159413        85.9720 
  54   0.0000       3.283662        89.3530 
  55   0.0000       3.283689        89.3537 
  56   0.0000       3.409410        92.7748 
  57   0.0000       3.469183        94.4013 
  58   0.0000       3.672608        99.9368 
  59   0.0000       3.672649        99.9379 
  60   0.0000       4.425630       120.4275 
  61   0.0000       4.425817       120.4326 
  62   0.0000       4.510140       122.7271 
  63   0.0000      22.189048       603.7947 

                 SPIN DOWN ORBITALS
  NO   OCC          E(Eh)            E(eV) 
   0   1.0000     -10.280687      -279.7517 
   1   1.0000      -0.775003       -21.0889 
   2   1.0000      -0.489557       -13.3215 
   3   1.0000      -0.489524       -13.3206 
   4   0.0000      -0.018915        -0.5147 
   5   0.0000       0.084963         2.3120 
   6   0.0000       0.166377         4.5273 
   7   0.0000       0.166380         4.5274 
   8   0.0000       0.200298         5.4504 
   9   0.0000       0.200303         5.4505 
  10   0.0000       0.227206         6.1826 
  11   0.0000       0.241732         6.5779 
  12   0.0000       0.258524         7.0348 
  13   0.0000       0.258524         7.0348 
  14   0.0000       0.324978         8.8431 
  15   0.0000       0.369642        10.0585 
  16   0.0000       0.369648        10.0586 
  17   0.0000       0.374126        10.1805 
  18   0.0000       0.375751        10.2247 
  19   0.0000       0.392286        10.6746 
  20   0.0000       0.392287        10.6747 
  21   0.0000       0.416912        11.3447 
  22   0.0000       0.416913        11.3448 
  23   0.0000       0.558786        15.2053 
  24   0.0000       0.558793        15.2055 
  25   0.0000       0.562298        15.3009 
  26   0.0000       0.592446        16.1213 
  27   0.0000       0.791456        21.5366 
  28   0.0000       0.805467        21.9179 
  29   0.0000       0.805470        21.9179 
  30   0.0000       0.897579        24.4244 
  31   0.0000       0.897587        24.4246 
  32   0.0000       1.015552        27.6346 
  33   0.0000       1.156948        31.4822 
  34   0.0000       1.156969        31.4827 
  35   0.0000       1.701077        46.2886 
  36   0.0000       1.727992        47.0211 
  37   0.0000       1.759490        47.8781 
  38   0.0000       1.759541        47.8796 
  39   0.0000       1.786332        48.6086 
  40   0.0000       1.946158        52.9577 
  41   0.0000       1.946203        52.9589 
  42   0.0000       2.202838        59.9423 
  43   0.0000       2.294909        62.4476 
  44   0.0000       2.301871        62.6371 
  45   0.0000       2.301879        62.6373 
  46   0.0000       2.592469        70.5447 
  47   0.0000       2.592500        70.5455 
  48   0.0000       2.744252        74.6749 
  49   0.0000       2.744279        74.6756 
  50   0.0000       2.893040        78.7236 
  51   0.0000       3.051607        83.0384 
  52   0.0000       3.208556        87.3092 
  53   0.0000       3.208594        87.3103 
  54   0.0000       3.319603        90.3310 
  55   0.0000       3.319638        90.3319 
  56   0.0000       3.428391        93.2913 
  57   0.0000       3.504120        95.3520 
  58   0.0000       3.715948       101.1161 
  59   0.0000       3.715988       101.1172 
  60   0.0000       4.447504       121.0227 
  61   0.0000       4.447594       121.0252 
  62   0.0000       4.535575       123.4193 
  63   0.0000      22.209202       604.3431 

                    ********************************
                    * MULLIKEN POPULATION ANALYSIS *
                    ********************************

--------------------------------------------
MULLIKEN ATOMIC CHARGES AND SPIN POPULATIONS
--------------------------------------------
   0 C :   -0.699563    0.881813
   1 H :    0.232888    0.039349
   2 H :    0.233337    0.039419
   3 H :    0.233338    0.039419
Sum of atomic charges         :   -0.0000000
Sum of atomic spin populations:    1.0000000

-----------------------------------------------------
MULLIKEN REDUCED ORBITAL CHARGES AND SPIN POPULATIONS
-----------------------------------------------------
CHARGE
  0 C s       :     3.357014  s :     3.357014
      pz      :     0.938219  p :     3.297045
      px      :     1.179335
      py      :     1.179491
      dz2     :     0.001104  d :     0.044574
      dxz     :     0.013011
      dyz     :     0.013036
      dx2y2   :     0.008700
      dxy     :     0.008724
      f0      :     0.000435  f :     0.000929
      f+1     :     0.000062
      f-1     :     0.000061
      f+2     :    -0.000102
      f-2     :    -0.000097
      f+3     :     0.000571
      f-3     :     0.000000
  1 H s       :     0.720887  s :     0.720887
      pz      :     0.022739  p :     0.046224
      px      :     0.020414
      py      :     0.003072
  2 H s       :     0.720574  s :     0.720574
      pz      :     0.022650  p :     0.046089
      px      :     0.007399
      py      :     0.016041
  3 H s       :     0.720572  s :     0.720572
      pz      :     0.022650  p :     0.046090
      px      :     0.007399
      py      :     0.016042

SPIN
  0 C s       :     0.008128  s :     0.008128
      pz      :     0.872229  p :     0.882826
      px      :     0.005311
      py      :     0.005285
      dz2     :    -0.001619  d :    -0.008278
      dxz     :    -0.003188
      dyz     :    -0.003190
      dx2y2   :    -0.000140
      dxy     :    -0.000141
      f0      :    -0.000396  f :    -0.000862
      f+1     :    -0.000145
      f-1     :    -0.000144
      f+2     :    -0.000018
      f-2     :    -0.000018
      f+3     :    -0.000140
      f-3     :     0.000000
  1 H s       :     0.015146  s :     0.015146
      pz      :     0.020302  p :     0.024203
      px      :     0.000848
      py      :     0.003053
  2 H s       :     0.015282  s :     0.015282
      pz      :     0.020232  p :     0.024137
      px      :     0.002504
      py      :     0.001402
  3 H s       :     0.015282  s :     0.015282
      pz      :     0.020232  p :     0.024137
      px      :     0.002504
      py      :     0.001402


                     *******************************
                     * LOEWDIN POPULATION ANALYSIS *
                     *******************************

-------------------------------------------
LOEWDIN ATOMIC CHARGES AND SPIN POPULATIONS
-------------------------------------------
   0 C :    0.057757    0.834050
   1 H :   -0.019278    0.055319
   2 H :   -0.019239    0.055316
   3 H :   -0.019240    0.055316

----------------------------------------------------
LOEWDIN REDUCED ORBITAL CHARGES AND SPIN POPULATIONS
----------------------------------------------------
CHARGE
  0 C s       :     2.911239  s :     2.911239
      pz      :     0.773522  p :     2.902088
      px      :     1.064293
      py      :     1.064273
      dz2     :     0.006727  d :     0.118468
      dxz     :     0.021419
      dyz     :     0.021425
      dx2y2   :     0.034445
      dxy     :     0.034452
      f0      :     0.001304  f :     0.010448
      f+1     :     0.000133
      f-1     :     0.000132
      f+2     :     0.003000
      f-2     :     0.003003
      f+3     :     0.002876
      f-3     :     0.000000
  1 H s       :     0.756518  s :     0.756518
      pz      :     0.068894  p :     0.262759
      px      :     0.122287
      py      :     0.071578
  2 H s       :     0.756501  s :     0.756501
      pz      :     0.068874  p :     0.262739
      px      :     0.084245
      py      :     0.109620
  3 H s       :     0.756501  s :     0.756501
      pz      :     0.068874  p :     0.262739
      px      :     0.084244
      py      :     0.109620

SPIN
  0 C s       :     0.085460  s :     0.085460
      pz      :     0.721774  p :     0.757411
      px      :     0.017820
      py      :     0.017817
      dz2     :     0.000535  d :    -0.008351
      dxz     :    -0.002692
      dyz     :    -0.002694
      dx2y2   :    -0.001751
      dxy     :    -0.001749
      f0      :    -0.000226  f :    -0.000470
      f+1     :    -0.000098
      f-1     :    -0.000098
      f+2     :    -0.000153
      f-2     :    -0.000154
      f+3     :     0.000259
      f-3     :     0.000000
  1 H s       :    -0.004235  s :    -0.004235
      pz      :     0.057182  p :     0.059554
      px      :     0.003108
      py      :    -0.000736
  2 H s       :    -0.004237  s :    -0.004237
      pz      :     0.057180  p :     0.059553
      px      :     0.000226
      py      :     0.002147
  3 H s       :    -0.004237  s :    -0.004237
      pz      :     0.057180  p :     0.059553
      px      :     0.000226
      py      :     0.002147


                      *****************************
                      * MAYER POPULATION ANALYSIS *
                      *****************************

  NA   - Mulliken gross atomic population
  ZA   - Total nuclear charge
  QA   - Mulliken gross atomic charge
  VA   - Mayer's total valence
  BVA  - Mayer's bonded valence
  FA   - Mayer's free valence

  ATOM       NA         ZA         QA         VA         BVA        FA
  0 C      6.6996     6.0000    -0.6996     3.7960     2.9941     0.8018
  1 H      0.7671     1.0000     0.2329     1.0126     1.0113     0.0014
  2 H      0.7667     1.0000     0.2333     1.0120     1.0107     0.0014
  3 H      0.7667     1.0000     0.2333     1.0120     1.0107     0.0014

  Mayer bond orders larger than 0.100000
B(  0-C ,  1-H ) :   0.9984 B(  0-C ,  2-H ) :   0.9979 B(  0-C ,  3-H ) :   0.9979 


-------
TIMINGS
-------

Total SCF time: 0 days 0 hours 0 min 7 sec 

Total time                  ....       7.924 sec
Sum of individual times     ....       7.271 sec  ( 91.8%)

Fock matrix formation       ....       6.088 sec  ( 76.8%)
  Split-RI-J                ....       0.856 sec  ( 14.1% of F)
  Chain of spheres X        ....       1.332 sec  ( 21.9% of F)
  XC integration            ....       1.204 sec  ( 19.8% of F)
    Basis function eval.    ....       0.052 sec  (  4.3% of XC)
    Density eval.           ....       0.054 sec  (  4.5% of XC)
    XC-Functional eval.     ....       0.057 sec  (  4.8% of XC)
    XC-Potential eval.      ....       0.073 sec  (  6.1% of XC)
Diagonalization             ....       0.172 sec  (  2.2%)
Density matrix formation    ....       0.008 sec  (  0.1%)
Population analysis         ....       0.122 sec  (  1.5%)
Initial guess               ....       0.101 sec  (  1.3%)
Orbital Transformation      ....       0.000 sec  (  0.0%)
Orbital Orthonormalization  ....       0.000 sec  (  0.0%)
DIIS solution               ....       0.374 sec  (  4.7%)
Grid generation             ....       0.407 sec  (  5.1%)

Maximum memory used throughout the entire SCF-calculation: 58.5 MB


-------------------------------------------------------------------------------
                          DFT DISPERSION CORRECTION                            
                                                                               
                              DFTD3 V3.1  Rev 1                                
                              USING zero damping                               
-------------------------------------------------------------------------------
The omegaB97X-D3 functional is recognized. Fit by Chai et al.
Active option DFTDOPT                   ...         3   

molecular C6(AA) [au] = 106.960192 


            DFT-D V3
 parameters
 s6 scaling factor         :     1.0000 
 rs6 scaling factor        :     1.2810 
 s8 scaling factor         :     1.0000 
 rs8 scaling factor        :     1.0940 
 Damping factor alpha6     :    14.0000 
 Damping factor alpha8     :    16.0000 
 ad hoc parameters k1-k3   :    16.0000     1.3333    -4.0000 

 Edisp/kcal,au: -0.006267564190  -0.000009987998 
 E6   /kcal   :  -0.000976049 
 E8   /kcal   :  -0.005291515 
 % E8         :  84.426973166 

-------------------------   ----------------
Dispersion correction           -0.000009988
-------------------------   ----------------


-------------------------   --------------------
FINAL SINGLE POINT ENERGY       -39.822907967758
-------------------------   --------------------



           ************************************************************
           *        Program running with 18 parallel MPI-processes    *
           *              working on a common directory               *
           ************************************************************
------------------------------------------------------------------------------
                         ORCA SCF GRADIENT CALCULATION
------------------------------------------------------------------------------

 ... reading COSX grid (gridx3)
Gradient of the Kohn-Sham DFT energy:
Kohn-Sham wavefunction type      ... UKS
Hartree-Fock exchange scaling    ...    0.196
Number of operators              ...    2
Number of atoms                  ...    4
Basis set dimensions             ...   64
Integral neglect threshold       ... 2.5e-11
Integral primitive cutoff        ... 2.5e-12
SHARK Integral package           ... ON

Nuc. rep. gradient       (SHARK) ... done (  0.0 sec)
HCore & Overlap gradient (SHARK) ... done (  0.0 sec)
RI-J gradient            (SHARK) ... done (  0.1 sec)
COSX-gradient                    ... done (  0.1 sec)
Exchange-correlation gradient    ... done
Dispersion correction            ... done

------------------
CARTESIAN GRADIENT
------------------

WARNING: THERE ARE 3 CONSTRAINED CARTESIAN COORDINATES
   1   C   :    0.000049100    0.000000053    0.046105391
   2   H   :   -0.015019273    0.000000001   -0.015370378
   3   H   :    0.007459999   -0.013074688   -0.015384748
   4   H   :    0.007459992    0.013074697   -0.015384722

Difference to translation invariance:
           :   -0.0000501825    0.0000000630   -0.0000344574

Difference to rotation invariance:
           :   -0.0000000343    0.0000497780   -0.0000000179

Norm of the cartesian gradient     ...    0.0592799712
RMS gradient                       ...    0.0171126537
MAX gradient                       ...    0.0461053911

-------
TIMINGS
-------

Total SCF gradient time            ...        0.581 sec

One electron gradient       ....       0.006 sec  (  1.1%)
RI-J Coulomb gradient       ....       0.103 sec  ( 17.8%)
COSX gradient               ....       0.117 sec  ( 20.1%)
XC gradient                 ....       0.059 sec  ( 10.2%)

Maximum memory used throughout the entire SCFGRAD-calculation: 33.6 MB
------------------------------------------------------------------------------
                         ORCA GEOMETRY RELAXATION STEP
------------------------------------------------------------------------------

Reading the OPT-File                    .... done
Getting information on internals        .... done
Copying old internal coords+grads       .... done
Making the new internal coordinates     .... (new redundants).... done
Validating the new internal coordinates .... (new redundants).... done
Calculating the B-matrix                .... done
Calculating the G,G- and P matrices     .... done
Transforming gradient to internals      .... done
Projecting the internal gradient        .... done
Number of atoms                         ....   4
Number of internal coordinates          ....   7
Current Energy                          ....   -39.822907968 Eh
Current gradient norm                   ....     0.059279971 Eh/bohr
Maximum allowed component of the step   ....  0.300
Current trust radius                    ....  0.300
Evaluating the initial hessian          ....  (Almloef) done
Projecting the Hessian                  .... done
Forming the augmented Hessian           .... done
Diagonalizing the augmented Hessian     .... done
Last element of RFO vector              ....  0.999300297
Lowest eigenvalues of augmented Hessian:
 -0.000524066  0.373574723  0.373574723  0.374098789 1000.000000000
Length of the computed step             ....  0.037428272
The final length of the internal step   ....  0.037428272
Converting the step to cartesian space:
 Initial RMS(Int)=    0.0141465570
Transforming coordinates:
 Iter   0:  RMS(Cart)=    0.0102045312 RMS(Int)=    0.0141465570
 Iter   1:  RMS(Cart)=    0.0000000001 RMS(Int)=    0.0000000002
Imposing constraints:
 Iter   0:  RMS(Cart)=    0.0000000009 RMS(Int)=    0.0000000021
CONVERGED
done
Storing new coordinates                 .... done

                                .--------------------.
          ----------------------|Geometry convergence|-------------------------
          Item                value                   Tolerance       Converged
          ---------------------------------------------------------------------
          RMS gradient        0.0052922098            0.0001000000      NO
          MAX gradient        0.0080974108            0.0003000000      NO
          RMS step            0.0141465570            0.0020000000      NO
          MAX step            0.0216451137            0.0040000000      NO
          ........................................................
          Max(Bonds)      0.0115      Max(Angles)    0.00
          Max(Dihed)        0.00      Max(Improp)    0.00
          ---------------------------------------------------------------------

The optimization has not yet converged - more geometry cycles are needed


    ---------------------------------------------------------------------------
                         Redundant Internal Coordinates
                            (Angstroem and degrees)

        Definition                    Value    dE/dq     Step     New-Value
    ----------------------------------------------------------------------------
     1. B(H   1,C   0)                1.0800 -0.008057  0.0114    1.0914   
     2. B(H   2,C   0)                1.0800 -0.008097  0.0115    1.0915   
     3. B(H   3,C   0)                1.0800 -0.008097  0.0115    1.0915   
     4. A(H   2,C   0,H   3)          106.50 -0.026677   -0.00    106.50 C 
     5. A(H   1,C   0,H   2)          106.50 -0.010613   -0.00    106.50 C 
     6. A(H   1,C   0,H   3)          106.50 -0.010613    0.00    106.50 C 
     7. I(H   1,H   3,H   2,C   0)     61.66  0.028957    0.00     61.66   
    ----------------------------------------------------------------------------

         *************************************************************
         *                GEOMETRY OPTIMIZATION CYCLE   2            *
         *************************************************************
---------------------------------
CARTESIAN COORDINATES (ANGSTROEM)
---------------------------------
  C      0.000016   -0.000000    0.003254
  H      1.009782   -0.000000   -0.410897
  H     -0.504899    0.874532   -0.410904
  H     -0.504899   -0.874532   -0.410904

----------------------------
CARTESIAN COORDINATES (A.U.)
----------------------------
  NO LB      ZA    FRAG     MASS         X           Y           Z
   0 C     6.0000    0    12.011    0.000031   -0.000000    0.006150
   1 H     1.0000    0     1.008    1.908211   -0.000000   -0.776483
   2 H     1.0000    0     1.008   -0.954121    1.652626   -0.776495
   3 H     1.0000    0     1.008   -0.954121   -1.652625   -0.776495

--------------------------------
INTERNAL COORDINATES (ANGSTROEM)
--------------------------------
 C      0   0   0     0.000000000000     0.00000000     0.00000000
 H      1   0   0     1.091397061150     0.00000000     0.00000000
 H      1   2   0     1.091454100808   106.49999995     0.00000000
 H      1   2   3     1.091454067743   106.49999995   113.37066616

---------------------------
INTERNAL COORDINATES (A.U.)
---------------------------
 C      0   0   0     0.000000000000     0.00000000     0.00000000
 H      1   0   0     2.062441548940     0.00000000     0.00000000
 H      1   2   0     2.062549338272   106.49999995     0.00000000
 H      1   2   3     2.062549275789   106.49999995   113.37066616



           ************************************************************
           *        Program running with 18 parallel MPI-processes    *
           *              working on a common directory               *
           ************************************************************
------------------------------------------------------------------------------
                   ___                                                        
                  /   \      - P O W E R E D   B Y -                         
                 /     \                                                     
                 |  |  |   _    _      __       _____    __    __             
                 |  |  |  | |  | |    /  \     |  _  \  |  |  /  |          
                  \  \/   | |  | |   /    \    | | | |  |  | /  /          
                 / \  \   | |__| |  /  /\  \   | |_| |  |  |/  /          
                |  |  |   |  __  | /  /__\  \  |    /   |      \           
                |  |  |   | |  | | |   __   |  |    \   |  |\   \          
                \     /   | |  | | |  |  |  |  | |\  \  |  | \   \       
                 \___/    |_|  |_| |__|  |__|  |_| \__\ |__|  \__/        
                                                                              
                      - O R C A' S   B I G   F R I E N D -                    
                                      &                                       
                       - I N T E G R A L  F E E D E R -                       
                                                                              
 v1 FN, 2020, v2 2021                                                         
------------------------------------------------------------------------------


Reading SHARK input file /beegfs/scratch/ispackman/PFAS_EPR_calcs/benchmark/JChemEd_CF3_radical/CH3_radical_106.5_degrees_IN-PROGRESS/CH3_radical_106.5_degrees.SHARKINP.tmp ... ok
----------------------
SHARK INTEGRAL PACKAGE
----------------------

Number of atoms                             ...      4
Number of basis functions                   ...     64
Number of shells                            ...     28
Maximum angular momentum                    ...      3
Integral batch strategy                     ... SHARK/LIBINT Hybrid
RI-J (if used) integral strategy            ... SPLIT-RIJ (Revised 2003 algorithm where possible)
Printlevel                                  ...      1
Contraction scheme used                     ... SEGMENTED contraction
Coulomb Range Separation                    ... NOT USED
Exchange Range Separation                   ... Long Range
   Mu parameter                             ...  0.250000
   Scaling (regular/separated)              ...  0.195728  0.804272
Finite Nucleus Model                        ... NOT USED
Auxiliary Coulomb fitting basis             ... AVAILABLE
   # of basis functions in Aux-J            ...     82
   # of shells in Aux-J                     ...     30
   Maximum angular momentum in Aux-J        ...      4
Auxiliary J/K fitting basis                 ... NOT available
Auxiliary Correlation fitting basis         ... NOT available
Auxiliary 'external' fitting basis          ... NOT available
Integral threshold                          ...     2.500000e-11
Primitive cut-off                           ...     2.500000e-12
Primitive pair pre-selection threshold      ...     2.500000e-12

Calculating pre-screening integrals         ... done (  0.0 sec) Dimension = 28
Organizing shell pair data                  ... done (  0.0 sec)
Shell pair information
Total number of shell pairs                 ...       406
Shell pairs after pre-screening             ...       406
Total number of primitive shell pairs       ...       977
Primitive shell pairs kept                  ...       944
          la=0 lb=0:    120 shell pairs
          la=1 lb=0:    135 shell pairs
          la=1 lb=1:     45 shell pairs
          la=2 lb=0:     45 shell pairs
          la=2 lb=1:     27 shell pairs
          la=2 lb=2:      6 shell pairs
          la=3 lb=0:     15 shell pairs
          la=3 lb=1:      9 shell pairs
          la=3 lb=2:      3 shell pairs
          la=3 lb=3:      1 shell pairs

Calculating one electron integrals          ... done (  0.0 sec)
Calculating RI/J V-Matrix + Cholesky decomp.... done (  0.0 sec)
Calculating Nuclear repulsion               ... done (  0.0 sec) ENN=      9.634878544640 Eh

SHARK setup successfully completed in   0.3 seconds

Maximum memory used throughout the entire GTOINT-calculation: 14.0 MB


           ************************************************************
           *        Program running with 18 parallel MPI-processes    *
           *              working on a common directory               *
           ************************************************************

Diagonalization of the overlap matrix:
Smallest eigenvalue                        ... 5.190e-05
Time for diagonalization                   ...    0.002 sec
Threshold for overlap eigenvalues          ... 1.000e-08
Number of eigenvalues below threshold      ... 0
Time for construction of square roots      ...    0.018 sec
Total time needed                          ...    0.020 sec

-------------------
DFT GRID GENERATION
-------------------

General Integration Accuracy     IntAcc      ... 4.388
Radial Grid Type                 RadialGrid  ... OptM3 with GC (2021)
Angular Grid (max. ang.)         AngularGrid ... 4 (Lebedev-302)
Angular grid pruning method      GridPruning ... 4 (adaptive)
Weight generation scheme         WeightScheme... Becke
Basis function cutoff            BFCut       ... 1.0000e-11
Integration weight cutoff        WCut        ... 1.0000e-14
Angular grids for H and He will be reduced by one unit
Partially contracted basis set               ... off
Rotationally invariant grid construction     ... off

Total number of grid points                  ...    17052
Total number of batches                      ...      269
Average number of points per batch           ...       63
Average number of grid points per atom       ...     4263
Time for grid setup =    0.096 sec

--------------------
COSX GRID GENERATION
--------------------

GRIDX 1
-------
General Integration Accuracy     IntAcc      ... 3.816
Radial Grid Type                 RadialGrid  ... OptM3 with GC (2021)
Angular Grid (max. ang.)         AngularGrid ... 1 (Lebedev-50)
Angular grid pruning method      GridPruning ... 4 (adaptive)
Weight generation scheme         WeightScheme... Becke
Basis function cutoff            BFCut       ... 1.0000e-11
Integration weight cutoff        WCut        ... 1.0000e-14
Angular grids for H and He will be reduced by one unit
Partially contracted basis set               ... on
Rotationally invariant grid construction     ... off

Total number of grid points                  ...     2151
Total number of batches                      ...       36
Average number of points per batch           ...       59
Average number of grid points per atom       ...      538
UseSFitting                                  ... on

GRIDX 2
-------
General Integration Accuracy     IntAcc      ... 4.020
Radial Grid Type                 RadialGrid  ... OptM3 with GC (2021)
Angular Grid (max. ang.)         AngularGrid ... 2 (Lebedev-110)
Angular grid pruning method      GridPruning ... 4 (adaptive)
Weight generation scheme         WeightScheme... Becke
Basis function cutoff            BFCut       ... 1.0000e-11
Integration weight cutoff        WCut        ... 1.0000e-14
Angular grids for H and He will be reduced by one unit
Partially contracted basis set               ... on
Rotationally invariant grid construction     ... off

Total number of grid points                  ...     5040
Total number of batches                      ...       82
Average number of points per batch           ...       61
Average number of grid points per atom       ...     1260
UseSFitting                                  ... on

GRIDX 3
-------
General Integration Accuracy     IntAcc      ... 4.338
Radial Grid Type                 RadialGrid  ... OptM3 with GC (2021)
Angular Grid (max. ang.)         AngularGrid ... 3 (Lebedev-194)
Angular grid pruning method      GridPruning ... 4 (adaptive)
Weight generation scheme         WeightScheme... Becke
Basis function cutoff            BFCut       ... 1.0000e-11
Integration weight cutoff        WCut        ... 1.0000e-14
Angular grids for H and He will be reduced by one unit
Partially contracted basis set               ... on
Rotationally invariant grid construction     ... off

Total number of grid points                  ...    11711
Total number of batches                      ...      186
Average number of points per batch           ...       62
Average number of grid points per atom       ...     2928
UseSFitting                                  ... on

Time for X-Grid setup             =    0.248 sec

--------------
SCF ITERATIONS
--------------
ITER       Energy         Delta-E        Max-DP      RMS-DP      [F,P]     Damp
               ***  Starting incremental Fock matrix formation  ***
  0    -39.8230832491   0.000000000000 0.00523735  0.00009471  0.0028966 0.7000
  1    -39.8231074012  -0.000024152131 0.00462271  0.00008272  0.0019653 0.7000
                               ***Turning on DIIS***
  2    -39.8231235732  -0.000016171970 0.01212177  0.00021525  0.0013263 0.0000
  3    -39.8231591598  -0.000035586641 0.00313234  0.00005628  0.0005600 0.0000
               *** Restarting incremental Fock matrix formation ***
                                   *** Resetting DIIS ***
  4    -39.8231608196  -0.000001659735 0.00029639  0.00001006  0.0002425 0.0000
  5    -39.8231610982  -0.000000278591 0.00029085  0.00000581  0.0001498 0.0000
  6    -39.8231612096  -0.000000111393 0.00005888  0.00000232  0.0000290 0.0000
  7    -39.8231612202  -0.000000010624 0.00002210  0.00000079  0.0000080 0.0000
                 **** Energy Check signals convergence ****

               *****************************************************
               *                     SUCCESS                       *
               *           SCF CONVERGED AFTER   8 CYCLES          *
               *****************************************************

Old exchange energy                            =     -2.170774835 Eh
New exchange energy                            =     -2.170779151 Eh
Exchange energy change after final integration =     -0.000004316 Eh
Total energy after final integration           =    -39.823165537 Eh
Final COS-X integration done in                =     0.113 sec
Total Energy       :          -39.82316554 Eh           -1083.64343 eV
  Last Energy change         ...   -7.5915e-10  Tolerance :   1.0000e-08
  Last MAX-Density change    ...    0.0000e+00  Tolerance :   1.0000e-07
             **** THE GBW FILE WAS UPDATED (/beegfs/scratch/ispackman/PFAS_EPR_calcs/benchmark/JChemEd_CF3_radical/CH3_radical_106.5_degrees_IN-PROGRESS/CH3_radical_106.5_degrees.gbw) ****
             **** DENSITY /beegfs/scratch/ispackman/PFAS_EPR_calcs/benchmark/JChemEd_CF3_radical/CH3_radical_106.5_degrees_IN-PROGRESS/CH3_radical_106.5_degrees.scfp WAS UPDATED ****
             **** ENERGY FILE WAS UPDATED (/beegfs/scratch/ispackman/PFAS_EPR_calcs/benchmark/JChemEd_CF3_radical/CH3_radical_106.5_degrees_IN-PROGRESS/CH3_radical_106.5_degrees.en.tmp) ****
----------------------
UHF SPIN CONTAMINATION
----------------------

Warning: in a DFT calculation there is little theoretical justification to 
         calculate <S**2> as in Hartree-Fock theory. We will do it anyways
         but you should keep in mind that the values have only limited relevance

Expectation value of <S**2>     :     0.753016
Ideal value S*(S+1) for S=0.5   :     0.750000
Deviation                       :     0.003016

             **** THE GBW FILE WAS UPDATED (/beegfs/scratch/ispackman/PFAS_EPR_calcs/benchmark/JChemEd_CF3_radical/CH3_radical_106.5_degrees_IN-PROGRESS/CH3_radical_106.5_degrees.gbw) ****
             **** DENSITY /beegfs/scratch/ispackman/PFAS_EPR_calcs/benchmark/JChemEd_CF3_radical/CH3_radical_106.5_degrees_IN-PROGRESS/CH3_radical_106.5_degrees.scfp WAS UPDATED ****
Total SCF time: 0 days 0 hours 0 min 5 sec 

Maximum memory used throughout the entire SCF-calculation: 58.5 MB


-------------------------------------------------------------------------------
                          DFT DISPERSION CORRECTION                            
                                                                               
                              DFTD3 V3.1  Rev 1                                
                              USING zero damping                               
-------------------------------------------------------------------------------
-------------------------   ----------------
Dispersion correction           -0.000010867
-------------------------   ----------------


-------------------------   --------------------
FINAL SINGLE POINT ENERGY       -39.823176403583
-------------------------   --------------------



           ************************************************************
           *        Program running with 18 parallel MPI-processes    *
           *              working on a common directory               *
           ************************************************************
------------------------------------------------------------------------------
                         ORCA SCF GRADIENT CALCULATION
------------------------------------------------------------------------------

 ... reading COSX grid (gridx3)
Gradient of the Kohn-Sham DFT energy:
Kohn-Sham wavefunction type      ... UKS
Hartree-Fock exchange scaling    ...    0.196
Number of operators              ...    2
Number of atoms                  ...    4
Basis set dimensions             ...   64
Integral neglect threshold       ... 2.5e-11
Integral primitive cutoff        ... 2.5e-12
SHARK Integral package           ... ON

Nuc. rep. gradient       (SHARK) ... done (  0.0 sec)
HCore & Overlap gradient (SHARK) ... done (  0.0 sec)
RI-J gradient            (SHARK) ... done (  0.1 sec)
COSX-gradient                    ... done (  0.1 sec)
Exchange-correlation gradient    ... done
Dispersion correction            ... done

------------------
CARTESIAN GRADIENT
------------------

WARNING: THERE ARE 3 CONSTRAINED CARTESIAN COORDINATES
   1   C   :    0.000087343   -0.000000109    0.053364651
   2   H   :   -0.007603010    0.000000004   -0.017783622
   3   H   :    0.003731789   -0.006616353   -0.017810161
   4   H   :    0.003731803    0.006616389   -0.017810163

Difference to translation invariance:
           :   -0.0000520749   -0.0000000699   -0.0000392953

Difference to rotation invariance:
           :    0.0000000346    0.0000558681   -0.0000000050

Norm of the cartesian gradient     ...    0.0630211520
RMS gradient                       ...    0.0181926395
MAX gradient                       ...    0.0533646507

-------
TIMINGS
-------

Total SCF gradient time            ...        0.622 sec

One electron gradient       ....       0.007 sec  (  1.0%)
RI-J Coulomb gradient       ....       0.131 sec  ( 21.0%)
COSX gradient               ....       0.112 sec  ( 18.0%)
XC gradient                 ....       0.061 sec  (  9.9%)

Maximum memory used throughout the entire SCFGRAD-calculation: 33.6 MB
------------------------------------------------------------------------------
                         ORCA GEOMETRY RELAXATION STEP
------------------------------------------------------------------------------

Reading the OPT-File                    .... done
Getting information on internals        .... done
Copying old internal coords+grads       .... done
Making the new internal coordinates     .... (new redundants).... done
Validating the new internal coordinates .... (new redundants).... done
Calculating the B-matrix                .... done
Calculating the G,G- and P matrices     .... done
Transforming gradient to internals      .... done
Projecting the internal gradient        .... done
Number of atoms                         ....   4
Number of internal coordinates          ....   7
Current Energy                          ....   -39.823176404 Eh
Current gradient norm                   ....     0.063021152 Eh/bohr
Maximum allowed component of the step   ....  0.300
Current trust radius                    ....  0.300
Updating the Hessian (BFGS)             .... done
Forming the augmented Hessian           .... done
Diagonalizing the augmented Hessian     .... done
Last element of RFO vector              ....  0.999999106
Lowest eigenvalues of augmented Hessian:
 -0.000000646  0.361197719  0.373574723  0.373575147 999.999999972
Length of the computed step             ....  0.001336888
The final length of the internal step   ....  0.001336888
Converting the step to cartesian space:
 Initial RMS(Int)=    0.0005052962
Transforming coordinates:
 Iter   0:  RMS(Cart)=    0.0003644920 RMS(Int)=    0.0005052962
 Iter   1:  RMS(Cart)=    0.0000000000 RMS(Int)=    0.0000000000
Imposing constraints:
 Iter   0:  RMS(Cart)=    0.0000000004 RMS(Int)=    0.0000000013
CONVERGED
done
Storing new coordinates                 .... done

                                .--------------------.
          ----------------------|Geometry convergence|-------------------------
          Item                value                   Tolerance       Converged
          ---------------------------------------------------------------------
          Energy change      -0.0002684358            0.0000050000      NO
          RMS gradient        0.0001825118            0.0001000000      NO
          MAX gradient        0.0002800381            0.0003000000      YES
          RMS step            0.0005052962            0.0020000000      YES
          MAX step            0.0007753126            0.0040000000      YES
          ........................................................
          Max(Bonds)      0.0004      Max(Angles)    0.00
          Max(Dihed)        0.00      Max(Improp)    0.00
          ---------------------------------------------------------------------

       The step convergence is overachieved with 
       reasonable convergence on the gradient
       Convergence will therefore be signaled now


                    ***********************HURRAY********************
                    ***        THE OPTIMIZATION HAS CONVERGED     ***
                    *************************************************


    ---------------------------------------------------------------------------
                         Redundant Internal Coordinates

                          --- Optimized Parameters ---  
                            (Angstroem and degrees)

        Definition                    OldVal   dE/dq     Step     FinalVal
    ----------------------------------------------------------------------------
     1. B(H   1,C   0)                1.0914 -0.000280  0.0004    1.0918   
     2. B(H   2,C   0)                1.0915 -0.000278  0.0004    1.0919   
     3. B(H   3,C   0)                1.0915 -0.000278  0.0004    1.0919   
     4. A(H   2,C   0,H   3)          106.50 -0.026169   -0.00    106.50 C 
     5. A(H   1,C   0,H   2)          106.50 -0.010410   -0.00    106.50 C 
     6. A(H   1,C   0,H   3)          106.50 -0.010410   -0.00    106.50 C 
     7. I(H   1,H   3,H   2,C   0)     61.66  0.028404    0.00     61.66   
    ----------------------------------------------------------------------------
                 *******************************************************
                 *** FINAL ENERGY EVALUATION AT THE STATIONARY POINT ***
                 ***               (AFTER    2 CYCLES)               ***
                 *******************************************************
---------------------------------
CARTESIAN COORDINATES (ANGSTROEM)
---------------------------------
  C      0.000015    0.000000    0.003371
  H      1.010161    0.000000   -0.410936
  H     -0.505088    0.874858   -0.410942
  H     -0.505088   -0.874858   -0.410942

----------------------------
CARTESIAN COORDINATES (A.U.)
----------------------------
  NO LB      ZA    FRAG     MASS         X           Y           Z
   0 C     6.0000    0    12.011    0.000029    0.000000    0.006370
   1 H     1.0000    0     1.008    1.908927    0.000000   -0.776556
   2 H     1.0000    0     1.008   -0.954478    1.653243   -0.776568
   3 H     1.0000    0     1.008   -0.954478   -1.653243   -0.776568

--------------------------------
INTERNAL COORDINATES (ANGSTROEM)
--------------------------------
 C      0   0   0     0.000000000000     0.00000000     0.00000000
 H      1   0   0     1.091807338903     0.00000000     0.00000000
 H      1   2   0     1.091861575387   106.49999989     0.00000000
 H      1   2   3     1.091861649829   106.49999989   113.37066609

---------------------------
INTERNAL COORDINATES (A.U.)
---------------------------
 C      0   0   0     0.000000000000     0.00000000     0.00000000
 H      1   0   0     2.063216861532     0.00000000     0.00000000
 H      1   2   0     2.063319353634   106.49999989     0.00000000
 H      1   2   3     2.063319494307   106.49999989   113.37066609

---------------------
BASIS SET INFORMATION
---------------------
There are 2 groups of distinct atoms

 Group   1 Type C   : 12s6p3d1f contracted to 6s3p3d1f pattern {621111/411/111/1}
 Group   2 Type H   : 5s2p contracted to 3s2p pattern {311/11}

Atom   0C    basis set group =>   1
Atom   1H    basis set group =>   2
Atom   2H    basis set group =>   2
Atom   3H    basis set group =>   2
---------------------------------
AUXILIARY/J BASIS SET INFORMATION
---------------------------------
There are 2 groups of distinct atoms

 Group   1 Type C   : 12s5p4d2f1g contracted to 6s4p3d1f1g pattern {711111/2111/211/2/1}
 Group   2 Type H   : 5s2p1d contracted to 3s1p1d pattern {311/2/1}

Atom   0C    basis set group =>   1
[...]

  NA   - Mulliken gross atomic population
  ZA   - Total nuclear charge
  QA   - Mulliken gross atomic charge
  VA   - Mayer's total valence
  BVA  - Mayer's bonded valence
  FA   - Mayer's free valence

  ATOM       NA         ZA         QA         VA         BVA        FA
  0 C      6.6873     6.0000    -0.6873     3.8003     2.9930     0.8073
  1 H      0.7712     1.0000     0.2288     1.0155     1.0142     0.0013
  2 H      0.7707     1.0000     0.2293     1.0148     1.0136     0.0012
  3 H      0.7707     1.0000     0.2293     1.0148     1.0136     0.0012

  Mayer bond orders larger than 0.100000
B(  0-C ,  1-H ) :   0.9980 B(  0-C ,  2-H ) :   0.9975 B(  0-C ,  3-H ) :   0.9975 


-------
TIMINGS
-------

Total SCF time: 0 days 0 hours 0 min 5 sec 

Total time                  ....       5.175 sec
Sum of individual times     ....       4.532 sec  ( 87.6%)

Fock matrix formation       ....       3.756 sec  ( 72.6%)
  Split-RI-J                ....       0.578 sec  ( 15.4% of F)
  Chain of spheres X        ....       0.894 sec  ( 23.8% of F)
  XC integration            ....       0.741 sec  ( 19.7% of F)
    Basis function eval.    ....       0.029 sec  (  3.8% of XC)
    Density eval.           ....       0.028 sec  (  3.7% of XC)
    XC-Functional eval.     ....       0.032 sec  (  4.3% of XC)
    XC-Potential eval.      ....       0.037 sec  (  5.0% of XC)
Diagonalization             ....       0.114 sec  (  2.2%)
Density matrix formation    ....       0.015 sec  (  0.3%)
Population analysis         ....       0.137 sec  (  2.6%)
Initial guess               ....       0.007 sec  (  0.1%)
Orbital Transformation      ....       0.000 sec  (  0.0%)
Orbital Orthonormalization  ....       0.002 sec  (  0.0%)
DIIS solution               ....       0.143 sec  (  2.8%)
Grid generation             ....       0.360 sec  (  7.0%)

Maximum memory used throughout the entire SCF-calculation: 58.5 MB


-------------------------------------------------------------------------------
                          DFT DISPERSION CORRECTION                            
                                                                               
                              DFTD3 V3.1  Rev 1                                
                              USING zero damping                               
-------------------------------------------------------------------------------
The omegaB97X-D3 functional is recognized. Fit by Chai et al.
Active option DFTDOPT                   ...         3   

molecular C6(AA) [au] = 106.988916 


            DFT-D V3
 parameters
 s6 scaling factor         :     1.0000 
 rs6 scaling factor        :     1.2810 
 s8 scaling factor         :     1.0000 
 rs8 scaling factor        :     1.0940 
 Damping factor alpha6     :    14.0000 
 Damping factor alpha8     :    16.0000 
 ad hoc parameters k1-k3   :    16.0000     1.3333    -4.0000 

 Edisp/kcal,au: -0.006839548695  -0.000010899513 
 E6   /kcal   :  -0.001065258 
 E8   /kcal   :  -0.005774290 
 % E8         :  84.425018790 

-------------------------   ----------------
Dispersion correction           -0.000010900
-------------------------   ----------------


-------------------------   --------------------
FINAL SINGLE POINT ENERGY       -39.823176738052
-------------------------   --------------------

                                *** OPTIMIZATION RUN DONE ***

                            ***************************************
                            *     ORCA property calculations      *
                            ***************************************

                                    ---------------------
                                    Active property flags
                                    ---------------------
   (+) Dipole Moment


------------------------------------------------------------------------------
                       ORCA ELECTRIC PROPERTIES CALCULATION
------------------------------------------------------------------------------

Dipole Moment Calculation                       ... on
Quadrupole Moment Calculation                   ... off
Polarizability Calculation                      ... off
GBWName                                         ... /beegfs/scratch/ispackman/PFAS_EPR_calcs/benchmark/JChemEd_CF3_radical/CH3_radical_106.5_degrees_IN-PROGRESS/CH3_radical_106.5_degrees.gbw
Electron density                                ... /beegfs/scratch/ispackman/PFAS_EPR_calcs/benchmark/JChemEd_CF3_radical/CH3_radical_106.5_degrees_IN-PROGRESS/CH3_radical_106.5_degrees.scfp
The origin for moment calculation is the CENTER OF MASS  = ( 0.000021,  0.000000 -0.151103)

-------------
DIPOLE MOMENT
-------------
                                X             Y             Z
Electronic contribution:      0.00008      -0.00000       0.66259
Nuclear contribution   :     -0.00005      -0.00000      -0.93155
                        -----------------------------------------
Total Dipole Moment    :      0.00003      -0.00000      -0.26896
                        -----------------------------------------
Magnitude (a.u.)       :      0.26896
Magnitude (Debye)      :      0.68365



--------------------
Rotational spectrum 
--------------------
 
Rotational constants in cm-1:     8.611495     8.611045     5.462801 
Rotational constants in MHz : 258166.113482 258152.628090 163770.645079 

 Dipole components along the rotational axes: 
x,y,z [a.u.] :     0.000000     0.000028    -0.268962 
x,y,z [Debye]:     0.000000     0.000071    -0.683646 

 


           ************************************************************
           *        Program running with 18 parallel MPI-processes    *
           *              working on a common directory               *
           ************************************************************

-------------------------------------------------------------------------------
                               ORCA SCF HESSIAN
-------------------------------------------------------------------------------

                   --------- SHARK INITIALIZATION DONE ---------

Hessian of the Kohn-Sham DFT energy:
Kohn-Sham wavefunction type                      ... UKS
Hartree-Fock exchange scaling                    ...    0.196
Number of operators                              ...    2
Number of atoms                                  ...    4
Basis set dimensions                             ...   64
Integral neglect threshold                       ... 2.5e-11
Integral primitive cutoff                        ... 2.5e-12

Setting up DFT Hessian calculations              ... 

HESS GRID
---------

General Integration Accuracy     IntAcc      ... 4.629
Radial Grid Type                 RadialGrid  ... OptM3 with GC (2021)
Angular Grid (max. ang.)         AngularGrid ... 5 (Lebedev-434)
Angular grid pruning method      GridPruning ... 4 (adaptive)
Weight generation scheme         WeightScheme... Becke
Basis function cutoff            BFCut       ... 1.0000e-11
Integration weight cutoff        WCut        ... 1.0000e-14
Angular grids for H and He will be reduced by one unit
Partially contracted basis set               ... off
Rotationally invariant grid construction     ... off

Total number of grid points                  ...    27259
Total number of batches                      ...      428
Average number of points per batch           ...       63
Average number of grid points per atom       ...     6815

Building densities                               ... done   (      0.0 sec)
Calculating rho(r) on the grid                   ... done   (      0.1 sec)
Building xc-kernel on the grid                   ... done   (      0.1 sec)
                                                     done   (      0.4 sec)

Nuclear repulsion Hessian  (SHARK)               ... done   (      0.0 sec)

----------------------------------------------
Forming right-hand sides of CP-SCF equations     ...
----------------------------------------------
One electron integral derivatives  (SHARK)       ... done   (      0.0 sec)
Transforming the overlap derivative matrices     ... done   (      0.0 sec)
Making the Q(x) pseudodensities                  ... done   (      0.0 sec)
Adding the E*S(x)*S(y) terms to the Hessian      ... done   (      0.0 sec)
Calculating energy weighted overlap derivatives  ... done   (      0.0 sec)
Two electron integral derivatives (SHARK-RI)     ... done   (      0.6 sec)
Exchange-correlation integral derivatives        ... done   (      0.4 sec)
tr(F(y)Q(x)) contribution to the Hessian         ... done   (      0.0 sec)
Response fock operator R(S(x)) (SHARK-RIJCOSX)   ... done   (      0.6 sec)
XC Response fock operator R(S(x))                ... done   (      0.2 sec)
tr(F(y)S(x)) contribution to the Hessian         ... done   (      0.0 sec)
Transforming and finalizing RHSs                 ... done   (      0.0 sec)

----------------------------------------------
Solving the CP-SCF equations (RIJCOSX)           ...
----------------------------------------------
     CP-SCF ITERATION   0:   1.0343e-01 (   0.3 sec   0/ 12 done)
     CP-SCF ITERATION   1:   2.7267e-02 (   0.3 sec   0/ 12 done)
     CP-SCF ITERATION   2:   8.1489e-03 (   0.3 sec   0/ 12 done)
     CP-SCF ITERATION   3:   2.7040e-03 (   0.3 sec   0/ 12 done)
     CP-SCF ITERATION   4:   4.9053e-04 (   0.3 sec   1/ 12 done)
     CP-SCF ITERATION   5:   9.6465e-05 (   0.3 sec  12/ 12 done)
                    *** THE CP-SCF HAS CONVERGED ***

                                                 ... done   (      2.0 sec)
Forming perturbed density Hessian contributions  ... done   (      0.0 sec)
2nd integral derivative contribs (SHARK-RI)      ... done   (      0.7 sec)
Exchange-correlation Hessian                     ... done   (      0.3 sec)
Dispersion correction in the Hessian             ... done   (      0.1 sec)
Dipole derivatives                               ... (center of mass:  0.000021,  0.000000 -0.151103)done   (      0.1 sec)

Total SCF Hessian time: 0 days 0 hours 0 min 5 sec 

Writing the Hessian file to the disk             ... done


Maximum memory used throughout the entire SCFHESS-calculation: 109.4 MB

-----------------------
VIBRATIONAL FREQUENCIES
-----------------------

Scaling factor for frequencies =  1.000000000  (already applied!)

   0:         0.00 cm**-1
   1:         0.00 cm**-1
   2:         0.00 cm**-1
   3:         0.00 cm**-1
   4:         0.00 cm**-1
   5:         0.00 cm**-1
   6:      1204.97 cm**-1
   7:      1409.93 cm**-1
   8:      1412.57 cm**-1
   9:      3068.37 cm**-1
  10:      3158.22 cm**-1
  11:      3158.36 cm**-1


------------
NORMAL MODES
------------

These modes are the Cartesian displacements weighted by the diagonal matrix
M(i,i)=1/sqrt(m[i]) where m[i] is the mass of the displaced atom
Thus, these vectors are normalized but *not* orthogonal

                  0          1          2          3          4          5    
      0       0.000000   0.000000   0.000000   0.000000   0.000000   0.000000
      1       0.000000   0.000000   0.000000   0.000000   0.000000   0.000000
      2       0.000000   0.000000   0.000000   0.000000   0.000000   0.000000
      3       0.000000   0.000000   0.000000   0.000000   0.000000   0.000000
      4       0.000000   0.000000   0.000000   0.000000   0.000000   0.000000
      5       0.000000   0.000000   0.000000   0.000000   0.000000   0.000000
      6       0.000000   0.000000   0.000000   0.000000   0.000000   0.000000
      7       0.000000   0.000000   0.000000   0.000000   0.000000   0.000000
      8       0.000000   0.000000   0.000000   0.000000   0.000000   0.000000
      9       0.000000   0.000000   0.000000   0.000000   0.000000   0.000000
     10       0.000000   0.000000   0.000000   0.000000   0.000000   0.000000
     11       0.000000   0.000000   0.000000   0.000000   0.000000   0.000000
                  6          7          8          9         10         11    
      0       0.000499  -0.000001   0.077908   0.000280   0.000168   0.091108
      1       0.000000   0.077888   0.000001   0.000000   0.091129  -0.000168
      2      -0.133565   0.000000   0.000721   0.044603  -0.000000  -0.000107
      3       0.214959  -0.000003   0.140296   0.546600  -0.001404  -0.758116
      4      -0.000001  -0.760387  -0.000012   0.000000   0.032350  -0.000060
      5       0.532155  -0.000004   0.250970  -0.176249   0.000550   0.297260
      6      -0.110453  -0.390567  -0.534318  -0.274968   0.341179  -0.164381
      7       0.183354  -0.083843  -0.391535   0.476374  -0.558482   0.341005
      8       0.529682   0.219759  -0.129775  -0.177609   0.256849  -0.148469
      9      -0.110452   0.390584  -0.534306  -0.274970  -0.341782  -0.163118
     10      -0.183354  -0.083855   0.391532  -0.476379  -0.559735  -0.338937
     11       0.529682  -0.219756  -0.129782  -0.177612  -0.257394  -0.147518


-----------
IR SPECTRUM
-----------

 Mode   freq       eps      Int      T**2         TX        TY        TZ
       cm**-1   L/(mol*cm) km/mol    a.u.
----------------------------------------------------------------------------
  6:   1204.97   0.002832   14.31  0.000733  ( 0.000052 -0.000000  0.027083)
  7:   1409.93   0.000707    3.58  0.000157  ( 0.000000 -0.012514 -0.000000)
  8:   1412.57   0.000693    3.50  0.000153  (-0.012369 -0.000000 -0.000265)
  9:   3068.37   0.000017    0.09  0.000002  ( 0.000059  0.000000  0.001318)
 10:   3158.22   0.005183   26.19  0.000512  ( 0.000041  0.022631  0.000000)
 11:   3158.36   0.005065   25.60  0.000500  ( 0.022371 -0.000042 -0.000009)

* The epsilon (eps) is given for a Dirac delta lineshape.
** The dipole moment derivative (T) already includes vibrational overlap.

The first frequency considered to be a vibration is 6
The total number of vibrations considered is 6


--------------------------
THERMOCHEMISTRY AT 298.15K
--------------------------

Temperature         ... 298.15 K
Pressure            ... 1.00 atm
Total Mass          ... 15.03 AMU

Throughout the following assumptions are being made:
  (1) The electronic state is orbitally nondegenerate
      but the spin degeneracy is treated
  (2) There are no thermally accessible electronically excited states
  (3) Hindered rotations indicated by low frequency modes are not
      treated as such but are treated as vibrations and this may
      cause some error
  (4) All equations used are the standard statistical mechanics
      equations for an ideal gas
  (5) All vibrations are strictly harmonic

freq.    1204.97  E(vib)   ...       0.01 
freq.    1409.93  E(vib)   ...       0.00 
freq.    1412.57  E(vib)   ...       0.00 
freq.    3068.37  E(vib)   ...       0.00 
freq.    3158.22  E(vib)   ...       0.00 
freq.    3158.36  E(vib)   ...       0.00 

------------
INNER ENERGY
------------

The inner energy is: U= E(el) + E(ZPE) + E(vib) + E(rot) + E(trans)
    E(el)   - is the total energy from the electronic structure calculation
              = E(kin-el) + E(nuc-el) + E(el-el) + E(nuc-nuc)
    E(ZPE)  - the the zero temperature vibrational energy from the frequency calculation
    E(vib)  - the the finite temperature correction to E(ZPE) due to population
              of excited vibrational states
    E(rot)  - is the rotational thermal energy
    E(trans)- is the translational thermal energy

Summary of contributions to the inner energy U:
Electronic energy                ...    -39.82317674 Eh
Zero point energy                ...      0.03055573 Eh      19.17 kcal/mol
Thermal vibrational correction   ...      0.00003064 Eh       0.02 kcal/mol
Thermal rotational correction    ...      0.00141627 Eh       0.89 kcal/mol
Thermal translational correction ...      0.00141627 Eh       0.89 kcal/mol
-----------------------------------------------------------------------
Total thermal energy                    -39.78975782 Eh


Summary of corrections to the electronic energy:
(perhaps to be used in another calculation)
Total thermal correction                  0.00286318 Eh       1.80 kcal/mol
Non-thermal (ZPE) correction              0.03055573 Eh      19.17 kcal/mol
-----------------------------------------------------------------------
Total correction                          0.03341891 Eh      20.97 kcal/mol


--------
ENTHALPY
--------

The enthalpy is H = U + kB*T
                kB is Boltzmann's constant
Total free energy                 ...    -39.78975782 Eh 
Thermal Enthalpy correction       ...      0.00094421 Eh       0.59 kcal/mol
-----------------------------------------------------------------------
Total Enthalpy                    ...    -39.78881361 Eh


Note: Rotational entropy computed according to Herzberg 
Infrared and Raman Spectra, Chapter V,1, Van Nostrand Reinhold, 1945 
Point Group:  C3v, Symmetry Number:   3  
Rotational constants in cm-1:     8.611495     8.611045     5.462801 

Vibrational entropy computed according to the QRRHO of S. Grimme
Chem.Eur.J. 2012 18 9955


-------
ENTROPY
-------

The entropy contributions are T*S = T*(S(el)+S(vib)+S(rot)+S(trans))
     S(el)   - electronic entropy
     S(vib)  - vibrational entropy
     S(rot)  - rotational entropy
     S(trans)- translational entropy
The entropies will be listed as multiplied by the temperature to get
units of energy

Electronic entropy                ...      0.00065446 Eh      0.41 kcal/mol
Vibrational entropy               ...      0.00003555 Eh      0.02 kcal/mol
Rotational entropy                ...      0.00563904 Eh      3.54 kcal/mol
Translational entropy             ...      0.01618771 Eh     10.16 kcal/mol
-----------------------------------------------------------------------
Final entropy term                ...      0.02251676 Eh     14.13 kcal/mol

In case the symmetry of your molecule has not been determined correctly
or in case you have a reason to use a different symmetry number we print 
out the resulting rotational entropy values for sn=1,12 :
 --------------------------------------------------------
|  sn= 1 | S(rot)=       0.00667633 Eh      4.19 kcal/mol|
|  sn= 2 | S(rot)=       0.00602187 Eh      3.78 kcal/mol|
|  sn= 3 | S(rot)=       0.00563904 Eh      3.54 kcal/mol|
|  sn= 4 | S(rot)=       0.00536742 Eh      3.37 kcal/mol|
|  sn= 5 | S(rot)=       0.00515673 Eh      3.24 kcal/mol|
|  sn= 6 | S(rot)=       0.00498458 Eh      3.13 kcal/mol|
|  sn= 7 | S(rot)=       0.00483904 Eh      3.04 kcal/mol|
|  sn= 8 | S(rot)=       0.00471296 Eh      2.96 kcal/mol|
|  sn= 9 | S(rot)=       0.00460175 Eh      2.89 kcal/mol|
|  sn=10 | S(rot)=       0.00450227 Eh      2.83 kcal/mol|
|  sn=11 | S(rot)=       0.00441228 Eh      2.77 kcal/mol|
|  sn=12 | S(rot)=       0.00433013 Eh      2.72 kcal/mol|
 --------------------------------------------------------


-------------------
GIBBS FREE ENERGY
-------------------

The Gibbs free energy is G = H - T*S

Total enthalpy                    ...    -39.78881361 Eh 
Total entropy correction          ...     -0.02251676 Eh    -14.13 kcal/mol
-----------------------------------------------------------------------
Final Gibbs free energy         ...    -39.81133037 Eh

For completeness - the Gibbs free energy minus the electronic energy
G-E(el)                           ...      0.01184637 Eh      7.43 kcal/mol


Timings for individual modules:

Sum of individual times         ...       49.481 sec (=   0.825 min)
GTO integral calculation        ...        8.236 sec (=   0.137 min)  16.6 %
SCF iterations                  ...       26.187 sec (=   0.436 min)  52.9 %
SCF Gradient evaluation         ...        6.503 sec (=   0.108 min)  13.1 %
Geometry relaxation             ...        0.133 sec (=   0.002 min)   0.3 %
Analytical frequency calculation...        8.422 sec (=   0.140 min)  17.0 %
                             ****ORCA TERMINATED NORMALLY****
TOTAL RUN TIME: 0 days 0 hours 0 minutes 56 seconds 919 msec

slurmID:    32260104
totalRuntime[s]:    56.972763231
