
                                 *****************
                                 * O   R   C   A *
                                 *****************

                                            #,                                       
                                            ###                                      
                                            ####                                     
                                            #####                                    
                                            ######                                   
                                           ########,                                 
                                     ,,################,,,,,                         
                               ,,#################################,,                 
                          ,,##########################################,,             
                       ,#########################################, ''#####,          
                    ,#############################################,,   '####,        
                  ,##################################################,,,,####,       
                ,###########''''           ''''###############################       
              ,#####''   ,,,,##########,,,,          '''####'''          '####       
            ,##' ,,,,###########################,,,                        '##       
           ' ,,###''''                  '''############,,,                           
         ,,##''                                '''############,,,,        ,,,,,,###''
      ,#''                                            '''#######################'''  
     '                                                          ''''####''''         
             ,#######,   #######,   ,#######,      ##                                
            ,#'     '#,  ##    ##  ,#'     '#,    #''#        ######   ,####,        
            ##       ##  ##   ,#'  ##            #'  '#       #        #'  '#        
            ##       ##  #######   ##           ,######,      #####,   #    #        
            '#,     ,#'  ##    ##  '#,     ,#' ,#      #,         ##   #,  ,#        
             '#######'   ##     ##  '#######'  #'      '#     #####' # '####'        



                  #######################################################
                  #                        -***-                        #
                  #          Department of theory and spectroscopy      #
                  #    Directorship and core code : Frank Neese         #
                  #        Max Planck Institute fuer Kohlenforschung    #
                  #                Kaiser Wilhelm Platz 1               #
                  #                 D-45470 Muelheim/Ruhr               #
                  #                      Germany                        #
                  #                                                     #
                  #                  All rights reserved                #
                  #                        -***-                        #
                  #######################################################


                         Program Version 5.0.4 -  RELEASE  -


 With contributions from (in alphabetic order):
   Daniel Aravena         : Magnetic Suceptibility
   Michael Atanasov       : Ab Initio Ligand Field Theory (pilot matlab implementation)
   Alexander A. Auer      : GIAO ZORA, VPT2 properties, NMR spectrum
   Ute Becker             : Parallelization
   Giovanni Bistoni       : ED, misc. LED, open-shell LED, HFLD
   Martin Brehm           : Molecular dynamics
   Dmytro Bykov           : SCF Hessian
   Vijay G. Chilkuri      : MRCI spin determinant printing, contributions to CSF-ICE
   Dipayan Datta          : RHF DLPNO-CCSD density
   Achintya Kumar Dutta   : EOM-CC, STEOM-CC
   Dmitry Ganyushin       : Spin-Orbit,Spin-Spin,Magnetic field MRCI
   Miquel Garcia          : C-PCM and meta-GGA Hessian, CC/C-PCM, Gaussian charge scheme
   Yang Guo               : DLPNO-NEVPT2, F12-NEVPT2, CIM, IAO-localization
   Andreas Hansen         : Spin unrestricted coupled pair/coupled cluster methods
   Benjamin Helmich-Paris : MC-RPA, TRAH-SCF, COSX integrals
   Lee Huntington         : MR-EOM, pCC
   Robert Izsak           : Overlap fitted RIJCOSX, COSX-SCS-MP3, EOM
   Marcus Kettner         : VPT2
   Christian Kollmar      : KDIIS, OOCD, Brueckner-CCSD(T), CCSD density, CASPT2, CASPT2-K
   Simone Kossmann        : Meta GGA functionals, TD-DFT gradient, OOMP2, MP2 Hessian
   Martin Krupicka        : Initial AUTO-CI
   Lucas Lang             : DCDCAS
   Marvin Lechner         : AUTO-CI (C++ implementation), FIC-MRCC
   Dagmar Lenk            : GEPOL surface, SMD
   Dimitrios Liakos       : Extrapolation schemes; Compound Job, initial MDCI parallelization
   Dimitrios Manganas     : Further ROCIS development; embedding schemes
   Dimitrios Pantazis     : SARC Basis sets
   Anastasios Papadopoulos: AUTO-CI, single reference methods and gradients
   Taras Petrenko         : DFT Hessian,TD-DFT gradient, ASA, ECA, R-Raman, ABS, FL, XAS/XES, NRVS
   Peter Pinski           : DLPNO-MP2, DLPNO-MP2 Gradient
   Christoph Reimann      : Effective Core Potentials
   Marius Retegan         : Local ZFS, SOC
   Christoph Riplinger    : Optimizer, TS searches, QM/MM, DLPNO-CCSD(T), (RO)-DLPNO pert. Triples
   Tobias Risthaus        : Range-separated hybrids, TD-DFT gradient, RPA, STAB
   Michael Roemelt        : Original ROCIS implementation
   Masaaki Saitow         : Open-shell DLPNO-CCSD energy and density
   Barbara Sandhoefer     : DKH picture change effects
   Avijit Sen             : IP-ROCIS
   Kantharuban Sivalingam : CASSCF convergence, NEVPT2, FIC-MRCI
   Bernardo de Souza      : ESD, SOC TD-DFT
   Georgi Stoychev        : AutoAux, RI-MP2 NMR, DLPNO-MP2 response
   Willem Van den Heuvel  : Paramagnetic NMR
   Boris Wezisla          : Elementary symmetry handling
   Frank Wennmohs         : Technical directorship


 We gratefully acknowledge several colleagues who have allowed us to
 interface, adapt or use parts of their codes:
   Stefan Grimme, W. Hujo, H. Kruse, P. Pracht,  : VdW corrections, initial TS optimization,
                  C. Bannwarth, S. Ehlert          DFT functionals, gCP, sTDA/sTD-DF
   Ed Valeev, F. Pavosevic, A. Kumar             : LibInt (2-el integral package), F12 methods
   Garnet Chan, S. Sharma, J. Yang, R. Olivares  : DMRG
   Ulf Ekstrom                                   : XCFun DFT Library
   Mihaly Kallay                                 : mrcc  (arbitrary order and MRCC methods)
   Jiri Pittner, Ondrej Demel                    : Mk-CCSD
   Frank Weinhold                                : gennbo (NPA and NBO analysis)
   Christopher J. Cramer and Donald G. Truhlar   : smd solvation model
   Lars Goerigk                                  : TD-DFT with DH, B97 family of functionals
   V. Asgeirsson, H. Jonsson                     : NEB implementation
   FAccTs GmbH                                   : IRC, NEB, NEB-TS, DLPNO-Multilevel, CI-OPT
                                                   MM, QMMM, 2- and 3-layer-ONIOM, Crystal-QMMM,
                                                   LR-CPCM, SF, NACMEs, symmetry and pop. for TD-DFT,
                                                   nearIR, NL-DFT gradient (VV10), updates on ESD,
                                                   ML-optimized integration grids
   S Lehtola, MJT Oliveira, MAL Marques          : LibXC Library
   Liviu Ungur et al                             : ANISO software


 Your calculation uses the libint2 library for the computation of 2-el integrals
 For citations please refer to: http://libint.valeyev.net

 Your ORCA version has been built with support for libXC version: 5.1.0
 For citations please refer to: https://tddft.org/programs/libxc/

 This ORCA versions uses:
   CBLAS   interface :  Fast vector & matrix operations
   LAPACKE interface :  Fast linear algebra routines
   SCALAPACK package :  Parallel linear algebra routines
   Shared memory     :  Shared parallel matrices
   BLAS/LAPACK       :  OpenBLAS 0.3.15  USE64BITINT DYNAMIC_ARCH NO_AFFINITY SkylakeX SINGLE_THREADED
        Core in use  :  SkylakeX
   Copyright (c) 2011-2014, The OpenBLAS Project


Your calculation utilizes the atom-pairwise dispersion correction
with the zero-damping scheme (D30)
Cite in your paper:
S.Grimme, J.Antony, S.Ehrlich and H.Krieg, J.Chem.Phys., 132, (2010), 154104 
   

XCFun DFT library Copyright 2009-2010 Ulf Ekstrom and contributors.
See http://admol.org/xcfun for more information.
This is free software; see the source code for copying conditions.
There is ABSOLUTELY NO WARRANTY; not even for MERCHANTABILITY or FITNESS FOR A PARTICULAR PURPOSE.
For details see the documentation.
Scientific users of this library should cite U. Ekstrom, L. Visscher, R. Bast, A. J. Thorvaldsen and K. Ruud;
J.Chem.Theor.Comp. 2010, DOI: 10.1021/ct100117s
XCFun Version 0.99 

================================================================================

----- Orbital basis set information -----
Your calculation utilizes the basis: def2-TZVPD
   F. Weigend and R. Ahlrichs, Phys. Chem. Chem. Phys. 7, 3297 (2005).
   D. Rappoport and F. Furche, J. Chem. Phys. 133 134105 (2010).

----- AuxJ basis set information -----
Your calculation utilizes the auxiliary basis: def2/J
   F. Weigend, Phys. Chem. Chem. Phys. 8, 1057 (2006).

================================================================================
                                        WARNINGS
                       Please study these warnings very carefully!
================================================================================


WARNING: Geometry Optimization
  ===> : Switching off AutoStart
         For restart on a previous wavefunction, please use MOREAD

INFO   : the flag for use of the SHARK integral package has been found!

================================================================================
                                       INPUT FILE
================================================================================
NAME = /beegfs/scratch/ispackman/PFAS_EPR_calcs/benchmark/JChemEd_CF3_radical/CH3_radical_96.0_degrees_IN-PROGRESS/CH3_radical_96.0_degrees.inp
|  1> ! UKS TightSCF wB97x-D3 def2-TZVPD xyzfile opt freq
|  2> 
|  3> # CH3 radical 96.0 degrees fixed
|  4> 
|  5> %maxcore 1000
|  6> %pal
|  7> nprocs 18
|  8> end
|  9> 
| 10> %geom Constraints
| 11>         { A * 0 * C }
| 12>     end
| 13> end
| 14> * xyz 0 2
| 15> C 0.00 0.00 0.00
| 16> H 0.9267585085 0.0000000000 -0.5545436565
| 17> H -0.4633792542 0.8025964115 -0.5545436565
| 18> H -0.4633792542 -0.8025964115 -0.5545436565
| 19> **                         ****END OF INPUT****
================================================================================

                       *****************************
                       * Geometry Optimization Run *
                       *****************************

Geometry optimization settings:
Update method            Update   .... BFGS
Choice of coordinates    CoordSys .... Z-matrix Internals
Initial Hessian          InHess   .... Almoef's Model

Convergence Tolerances:
Energy Change            TolE     ....  5.0000e-06 Eh
Max. Gradient            TolMAXG  ....  3.0000e-04 Eh/bohr
RMS Gradient             TolRMSG  ....  1.0000e-04 Eh/bohr
Max. Displacement        TolMAXD  ....  4.0000e-03 bohr
RMS Displacement         TolRMSD  ....  2.0000e-03 bohr
Strict Convergence                ....  False
------------------------------------------------------------------------------
                        ORCA OPTIMIZATION COORDINATE SETUP
------------------------------------------------------------------------------

The optimization will be done in new redundant internal coordinates
Making redundant internal coordinates   ...  (new redundants) done
Evaluating the initial hessian          ...  (Almloef) done
Evaluating the coordinates              ...  done
Calculating the B-matrix                .... done
Calculating the G-matrix                .... done
Diagonalizing the G-matrix              .... done
Imposing constraints:
 Iter   0:  RMS(Cart)=    0.0000000000 RMS(Int)=    0.0000000000
CONVERGED
Will constrain atom 0 coordinate 1 
Will constrain atom 0 coordinate 2 
Will constrain atom 1 coordinate 2 
The first mode is                       ....    1
The number of degrees of freedom        ....    6
Storing new coordinates                 .... done

    -----------------------------------------------------------------
                    Redundant Internal Coordinates


    -----------------------------------------------------------------
         Definition                    Initial Value    Approx d2E/dq
    -----------------------------------------------------------------
      1. B(H   1,C   0)                  1.0800         0.373575   
      2. B(H   2,C   0)                  1.0800         0.373575   
      3. B(H   3,C   0)                  1.0800         0.373575   
      4. A(H   2,C   0,H   3)           96.0000         0.294224 C 
      5. A(H   1,C   0,H   2)           96.0000         0.294224 C 
      6. A(H   1,C   0,H   3)           96.0000         0.294224 C 
      7. I(H   1,H   3,H   2,C   0)     81.0127         0.002512   
    -----------------------------------------------------------------

Number of atoms                         .... 4
Number of degrees of freedom            .... 7

         *************************************************************
         *                GEOMETRY OPTIMIZATION CYCLE   1            *
         *************************************************************
---------------------------------
CARTESIAN COORDINATES (ANGSTROEM)
---------------------------------
  C      0.000000    0.000000    0.000000
  H      0.926759    0.000000   -0.554544
  H     -0.463379    0.802596   -0.554544
  H     -0.463379   -0.802596   -0.554544

----------------------------
CARTESIAN COORDINATES (A.U.)
----------------------------
  NO LB      ZA    FRAG     MASS         X           Y           Z
   0 C     6.0000    0    12.011    0.000000    0.000000    0.000000
   1 H     1.0000    0     1.008    1.751320    0.000000   -1.047936
   2 H     1.0000    0     1.008   -0.875660    1.516687   -1.047936
   3 H     1.0000    0     1.008   -0.875660   -1.516687   -1.047936

--------------------------------
INTERNAL COORDINATES (ANGSTROEM)
--------------------------------
 C      0   0   0     0.000000000000     0.00000000     0.00000000
 H      1   0   0     1.080000000019     0.00000000     0.00000000
 H      1   2   0     1.079999999972    96.00000000     0.00000000
 H      1   2   3     1.079999999972    96.00000000    96.70342344

---------------------------
INTERNAL COORDINATES (A.U.)
---------------------------
 C      0   0   0     0.000000000000     0.00000000     0.00000000
 H      1   0   0     2.040904224671     0.00000000     0.00000000
 H      1   2   0     2.040904224582    96.00000000     0.00000000
 H      1   2   3     2.040904224582    96.00000000    96.70342344

---------------------
BASIS SET INFORMATION
---------------------
There are 2 groups of distinct atoms

 Group   1 Type C   : 12s6p3d1f contracted to 6s3p3d1f pattern {621111/411/111/1}
 Group   2 Type H   : 5s2p contracted to 3s2p pattern {311/11}

Atom   0C    basis set group =>   1
Atom   1H    basis set group =>   2
Atom   2H    basis set group =>   2
Atom   3H    basis set group =>   2
---------------------------------
AUXILIARY/J BASIS SET INFORMATION
---------------------------------
There are 2 groups of distinct atoms

 Group   1 Type C   : 12s5p4d2f1g contracted to 6s4p3d1f1g pattern {711111/2111/211/2/1}
 Group   2 Type H   : 5s2p1d contracted to 3s1p1d pattern {311/2/1}

Atom   0C    basis set group =>   1
Atom   1H    basis set group =>   2
Atom   2H    basis set group =>   2
Atom   3H    basis set group =>   2


           ************************************************************
           *        Program running with 18 parallel MPI-processes    *
           *              working on a common directory               *
           ************************************************************
------------------------------------------------------------------------------
                           ORCA GTO INTEGRAL CALCULATION
                           -- RI-GTO INTEGRALS CHOSEN --
------------------------------------------------------------------------------
------------------------------------------------------------------------------
                   ___                                                        
                  /   \      - P O W E R E D   B Y -                         
                 /     \                                                     
                 |  |  |   _    _      __       _____    __    __             
                 |  |  |  | |  | |    /  \     |  _  \  |  |  /  |          
                  \  \/   | |  | |   /    \    | | | |  |  | /  /          
                 / \  \   | |__| |  /  /\  \   | |_| |  |  |/  /          
                |  |  |   |  __  | /  /__\  \  |    /   |      \           
                |  |  |   | |  | | |   __   |  |    \   |  |\   \          
                \     /   | |  | | |  |  |  |  | |\  \  |  | \   \       
                 \___/    |_|  |_| |__|  |__|  |_| \__\ |__|  \__/        
                                                                              
                      - O R C A' S   B I G   F R I E N D -                    
                                      &                                       
                       - I N T E G R A L  F E E D E R -                       
                                                                              
 v1 FN, 2020, v2 2021                                                         
------------------------------------------------------------------------------


Reading SHARK input file /beegfs/scratch/ispackman/PFAS_EPR_calcs/benchmark/JChemEd_CF3_radical/CH3_radical_96.0_degrees_IN-PROGRESS/CH3_radical_96.0_degrees.SHARKINP.tmp ... ok
----------------------
SHARK INTEGRAL PACKAGE
----------------------

Number of atoms                             ...      4
Number of basis functions                   ...     64
Number of shells                            ...     28
Maximum angular momentum                    ...      3
Integral batch strategy                     ... SHARK/LIBINT Hybrid
RI-J (if used) integral strategy            ... SPLIT-RIJ (Revised 2003 algorithm where possible)
Printlevel                                  ...      1
Contraction scheme used                     ... SEGMENTED contraction
Coulomb Range Separation                    ... NOT USED
Exchange Range Separation                   ... Long Range
   Mu parameter                             ...  0.250000
   Scaling (regular/separated)              ...  0.195728  0.804272
Finite Nucleus Model                        ... NOT USED
Auxiliary Coulomb fitting basis             ... AVAILABLE
   # of basis functions in Aux-J            ...     82
   # of shells in Aux-J                     ...     30
   Maximum angular momentum in Aux-J        ...      4
Auxiliary J/K fitting basis                 ... NOT available
Auxiliary Correlation fitting basis         ... NOT available
Auxiliary 'external' fitting basis          ... NOT available
Integral threshold                          ...     2.500000e-11
Primitive cut-off                           ...     2.500000e-12
Primitive pair pre-selection threshold      ...     2.500000e-12

Calculating pre-screening integrals         ... done (  0.0 sec) Dimension = 28
Organizing shell pair data                  ... done (  0.0 sec)
Shell pair information
Total number of shell pairs                 ...       406
Shell pairs after pre-screening             ...       406
Total number of primitive shell pairs       ...       977
Primitive shell pairs kept                  ...       947
          la=0 lb=0:    120 shell pairs
          la=1 lb=0:    135 shell pairs
          la=1 lb=1:     45 shell pairs
          la=2 lb=0:     45 shell pairs
          la=2 lb=1:     27 shell pairs
          la=2 lb=2:      6 shell pairs
          la=3 lb=0:     15 shell pairs
          la=3 lb=1:      9 shell pairs
          la=3 lb=2:      3 shell pairs
          la=3 lb=3:      1 shell pairs

Calculating one electron integrals          ... done (  0.0 sec)
Calculating RI/J V-Matrix + Cholesky decomp.... done (  0.2 sec)
Calculating Nuclear repulsion               ... done (  0.0 sec) ENN=      9.808617598518 Eh

SHARK setup successfully completed in   0.7 seconds

Maximum memory used throughout the entire GTOINT-calculation: 14.0 MB


           ************************************************************
           *        Program running with 18 parallel MPI-processes    *
           *              working on a common directory               *
           ************************************************************
-------------------------------------------------------------------------------
                                 ORCA SCF
-------------------------------------------------------------------------------

------------
SCF SETTINGS
------------
Hamiltonian:
 Density Functional     Method          .... DFT(GTOs)
 Exchange Functional    Exchange        .... WB97X-D3
 Correlation Functional Correlation     .... WB97X-D3
 Gradients option       PostSCFGGA      .... off
 Hybrid DFT is turned on
   Fraction HF Exchange ScalHFX         ....  0.195728
   Scaling of DF-GGA-X  ScalDFX         ....  0.000000
   Scaling of DF-GGA-C  ScalDFC         ....  1.000000
   Scaling of DF-LDA-C  ScalLDAC        ....  1.000000
   Perturbative correction              ....  0.000000
   Density functional embedding theory  .... OFF
 Long-range corrected/Screened/Range-Separated Hybrid DFT is turned on
   Amount of maximum screened exact exchange              ....  0.804272
   Range separation parameter mu (erf(mu*r12)/r12)        ....  0.250000
 RI-approximation to the Coulomb term is turned on
   Number of AuxJ basis functions       .... 82
   RIJ-COSX (HFX calculated with COS-X)).... on


General Settings:
 Integral files         IntName         .... /beegfs/scratch/ispackman/PFAS_EPR_calcs/benchmark/JChemEd_CF3_radical/CH3_radical_96.0_degrees_IN-PROGRESS/CH3_radical_96.0_degrees
 Hartree-Fock type      HFTyp           .... UHF
 Total Charge           Charge          ....    0
 Multiplicity           Mult            ....    2
 Number of Electrons    NEL             ....    9
 Basis Dimension        Dim             ....   64
 Nuclear Repulsion      ENuc            ....      9.8086175985 Eh

Convergence Acceleration:
 DIIS                   CNVDIIS         .... on
   Start iteration      DIISMaxIt       ....    12
   Startup error        DIISStart       ....  0.200000
   # of expansion vecs  DIISMaxEq       ....     5
   Bias factor          DIISBfac        ....   1.050
   Max. coefficient     DIISMaxC        ....  10.000
 Trust-Rad. Augm. Hess. CNVTRAH         .... auto
   Auto Start mean grad. ratio tolernc. ....  1.125000
   Auto Start start iteration           ....    20
   Auto Start num. interpolation iter.  ....    10
   Max. Number of Micro iterations      ....    16
   Max. Number of Macro iterations      .... Maxiter - #DIIS iter
   Number of Davidson start vectors     ....     2
   Converg. threshold I  (grad. norm)   ....   1.000e-05
   Converg. threshold II (energy diff.) ....   1.000e-08
   Grad. Scal. Fac. for Micro threshold ....   0.100
   Minimum threshold for Micro iter.    ....   0.010
   NR start threshold (gradient norm)   ....   0.001
   Initial trust radius                 ....   0.400
   Minimum AH scaling param. (alpha)    ....   1.000
   Maximum AH scaling param. (alpha)    .... 1000.000
   Orbital update algorithm             .... Taylor
   White noise on init. David. guess    .... on
   Maximum white noise                  ....   0.010
   Quad. conv. algorithm                .... NR
 SOSCF                  CNVSOSCF        .... off
 Level Shifting         CNVShift        .... on
   Level shift para.    LevelShift      ....    0.2500
   Turn off err/grad.   ShiftErr        ....    0.0010
 Zerner damping         CNVZerner       .... off
 Static damping         CNVDamp         .... on
   Fraction old density DampFac         ....    0.7000
   Max. Damping (<1)    DampMax         ....    0.9800
   Min. Damping (>=0)   DampMin         ....    0.0000
   Turn off err/grad.   DampErr         ....    0.1000
 Fernandez-Rico         CNVRico         .... off

SCF Procedure:
 Maximum # iterations   MaxIter         ....   125
 SCF integral mode      SCFMode         .... Direct
   Integral package                     .... SHARK and LIBINT hybrid scheme
 Reset frequency        DirectResetFreq ....    20
 Integral Threshold     Thresh          ....  2.500e-11 Eh
 Primitive CutOff       TCut            ....  2.500e-12 Eh

Convergence Tolerance:
 Convergence Check Mode ConvCheckMode   .... Total+1el-Energy
 Convergence forced     ConvForced      .... 0
 Energy Change          TolE            ....  1.000e-08 Eh
 1-El. energy change                    ....  1.000e-05 Eh
 DIIS Error             TolErr          ....  5.000e-07


Diagonalization of the overlap matrix:
Smallest eigenvalue                        ... 3.470e-05
Time for diagonalization                   ...    0.002 sec
Threshold for overlap eigenvalues          ... 1.000e-08
Number of eigenvalues below threshold      ... 0
Time for construction of square roots      ...    0.080 sec
Total time needed                          ...    0.083 sec

Time for model grid setup =    0.101 sec

------------------------------
INITIAL GUESS: MODEL POTENTIAL
------------------------------
Loading Hartree-Fock densities                     ... done
Calculating cut-offs                               ... done
Initializing the effective Hamiltonian             ... done
Setting up the integral package (SHARK)            ... done
Starting the Coulomb interaction                   ... done (   0.2 sec)
Reading the grid                                   ... done
Mapping shells                                     ... done
Starting the XC term evaluation                    ... done (   0.0 sec)
  promolecular density results
     # of electrons  =      8.997971235
     EX              =     -5.938455310
     EC              =     -0.260822708
     EX+EC           =     -6.199278019
Transforming the Hamiltonian                       ... done (   0.0 sec)
Diagonalizing the Hamiltonian                      ... done (   0.0 sec)
Back transforming the eigenvectors                 ... done (   0.0 sec)
Now organizing SCF variables                       ... done
                      ------------------
                      INITIAL GUESS DONE (   0.3 sec)
                      ------------------
-------------------
DFT GRID GENERATION
-------------------

General Integration Accuracy     IntAcc      ... 4.388
Radial Grid Type                 RadialGrid  ... OptM3 with GC (2021)
Angular Grid (max. ang.)         AngularGrid ... 4 (Lebedev-302)
Angular grid pruning method      GridPruning ... 4 (adaptive)
Weight generation scheme         WeightScheme... Becke
Basis function cutoff            BFCut       ... 1.0000e-11
Integration weight cutoff        WCut        ... 1.0000e-14
Angular grids for H and He will be reduced by one unit
Partially contracted basis set               ... off
Rotationally invariant grid construction     ... off

Total number of grid points                  ...    17035
Total number of batches                      ...      268
Average number of points per batch           ...       63
Average number of grid points per atom       ...     4259
Time for grid setup =    0.154 sec

--------------------
COSX GRID GENERATION
--------------------

GRIDX 1
-------
General Integration Accuracy     IntAcc      ... 3.816
Radial Grid Type                 RadialGrid  ... OptM3 with GC (2021)
Angular Grid (max. ang.)         AngularGrid ... 1 (Lebedev-50)
Angular grid pruning method      GridPruning ... 4 (adaptive)
Weight generation scheme         WeightScheme... Becke
Basis function cutoff            BFCut       ... 1.0000e-11
Integration weight cutoff        WCut        ... 1.0000e-14
Angular grids for H and He will be reduced by one unit
Partially contracted basis set               ... on
Rotationally invariant grid construction     ... off

Total number of grid points                  ...     2144
Total number of batches                      ...       36
Average number of points per batch           ...       59
Average number of grid points per atom       ...      536
UseSFitting                                  ... on

GRIDX 2
-------
General Integration Accuracy     IntAcc      ... 4.020
Radial Grid Type                 RadialGrid  ... OptM3 with GC (2021)
Angular Grid (max. ang.)         AngularGrid ... 2 (Lebedev-110)
Angular grid pruning method      GridPruning ... 4 (adaptive)
Weight generation scheme         WeightScheme... Becke
Basis function cutoff            BFCut       ... 1.0000e-11
Integration weight cutoff        WCut        ... 1.0000e-14
Angular grids for H and He will be reduced by one unit
Partially contracted basis set               ... on
Rotationally invariant grid construction     ... off

Total number of grid points                  ...     5056
Total number of batches                      ...       81
Average number of points per batch           ...       62
Average number of grid points per atom       ...     1264
UseSFitting                                  ... on

GRIDX 3
-------
General Integration Accuracy     IntAcc      ... 4.338
Radial Grid Type                 RadialGrid  ... OptM3 with GC (2021)
Angular Grid (max. ang.)         AngularGrid ... 3 (Lebedev-194)
Angular grid pruning method      GridPruning ... 4 (adaptive)
Weight generation scheme         WeightScheme... Becke
Basis function cutoff            BFCut       ... 1.0000e-11
Integration weight cutoff        WCut        ... 1.0000e-14
Angular grids for H and He will be reduced by one unit
Partially contracted basis set               ... on
Rotationally invariant grid construction     ... off

Total number of grid points                  ...    11716
Total number of batches                      ...      185
Average number of points per batch           ...       63
Average number of grid points per atom       ...     2929
UseSFitting                                  ... on

Time for X-Grid setup             =    0.607 sec

--------------
SCF ITERATIONS
--------------
ITER       Energy         Delta-E        Max-DP      RMS-DP      [F,P]     Damp
               ***  Starting incremental Fock matrix formation  ***
  0    -39.7597301825   0.000000000000 0.07082407  0.00131380  0.0751269 0.7000
  1    -39.7734893260  -0.013759143438 0.06343663  0.00114145  0.0483847 0.7000
                               ***Turning on DIIS***
  2    -39.7813465169  -0.007857190946 0.12961453  0.00243279  0.0281143 0.0000
  3    -39.7951711641  -0.013824647189 0.04947776  0.00087714  0.0191107 0.0000
  4    -39.7966662940  -0.001495129963 0.01526354  0.00025975  0.0032043 0.0000
  5    -39.7967339923  -0.000067698218 0.01371345  0.00022272  0.0016843 0.0000
  6    -39.7967577873  -0.000023795068 0.01482241  0.00023056  0.0006351 0.0000
               *** Restarting incremental Fock matrix formation ***
                                   *** Resetting DIIS ***
  7    -39.7967634947  -0.000005707399 0.00119707  0.00001866  0.0000863 0.0000
  8    -39.7967636712  -0.000000176489 0.00082959  0.00001296  0.0000462 0.0000
  9    -39.7967637286  -0.000000057337 0.00002090  0.00000084  0.0000196 0.0000
 10    -39.7967637320  -0.000000003485 0.00001158  0.00000036  0.0000073 0.0000
                 **** Energy Check signals convergence ****

               *****************************************************
               *                     SUCCESS                       *
               *           SCF CONVERGED AFTER  11 CYCLES          *
               *****************************************************

Old exchange energy                            =     -2.172824147 Eh
New exchange energy                            =     -2.172827381 Eh
Exchange energy change after final integration =     -0.000003233 Eh
Total energy after final integration           =    -39.796766966 Eh
Final COS-X integration done in                =     0.126 sec

----------------
TOTAL SCF ENERGY
----------------

Total Energy       :          -39.79676697 Eh           -1082.92508 eV

Components:
Nuclear Repulsion  :            9.80861760 Eh             266.90605 eV
Electronic Energy  :          -49.60538456 Eh           -1349.83114 eV
One Electron Energy:          -71.83284845 Eh           -1954.67118 eV
Two Electron Energy:           22.22746388 Eh             604.84004 eV
Max COSX asymmetry :            0.00000010 Eh               0.00000 eV

Virial components:
Potential Energy   :          -79.46648848 Eh           -2162.39309 eV
Kinetic Energy     :           39.66972151 Eh            1079.46800 eV
Virial Ratio       :            2.00320258


DFT components:
N(Alpha)           :        4.999997580888 electrons
N(Beta)            :        4.000000239133 electrons
N(Total)           :        8.999997820021 electrons
E(XC)              :       -4.316653835118 Eh       
DFET-embed. en.    :        0.000000000000 Eh       

---------------
SCF CONVERGENCE
---------------

  Last Energy change         ...   -3.2372e-10  Tolerance :   1.0000e-08
  Last MAX-Density change    ...    0.0000e+00  Tolerance :   1.0000e-07
  Last RMS-Density change    ...    0.0000e+00  Tolerance :   5.0000e-09
  Last DIIS Error            ...    1.3417e-06  Tolerance :   5.0000e-07

             **** THE GBW FILE WAS UPDATED (/beegfs/scratch/ispackman/PFAS_EPR_calcs/benchmark/JChemEd_CF3_radical/CH3_radical_96.0_degrees_IN-PROGRESS/CH3_radical_96.0_degrees.gbw) ****
             **** DENSITY /beegfs/scratch/ispackman/PFAS_EPR_calcs/benchmark/JChemEd_CF3_radical/CH3_radical_96.0_degrees_IN-PROGRESS/CH3_radical_96.0_degrees.scfp WAS UPDATED ****
             **** ENERGY FILE WAS UPDATED (/beegfs/scratch/ispackman/PFAS_EPR_calcs/benchmark/JChemEd_CF3_radical/CH3_radical_96.0_degrees_IN-PROGRESS/CH3_radical_96.0_degrees.en.tmp) ****
----------------------
UHF SPIN CONTAMINATION
----------------------

Warning: in a DFT calculation there is little theoretical justification to 
         calculate <S**2> as in Hartree-Fock theory. We will do it anyways
         but you should keep in mind that the values have only limited relevance

Expectation value of <S**2>     :     0.753197
Ideal value S*(S+1) for S=0.5   :     0.750000
Deviation                       :     0.003197

             **** THE GBW FILE WAS UPDATED (/beegfs/scratch/ispackman/PFAS_EPR_calcs/benchmark/JChemEd_CF3_radical/CH3_radical_96.0_degrees_IN-PROGRESS/CH3_radical_96.0_degrees.gbw) ****
             **** DENSITY /beegfs/scratch/ispackman/PFAS_EPR_calcs/benchmark/JChemEd_CF3_radical/CH3_radical_96.0_degrees_IN-PROGRESS/CH3_radical_96.0_degrees.scfp WAS UPDATED ****
----------------
ORBITAL ENERGIES
----------------
                 SPIN UP ORBITALS
  NO   OCC          E(Eh)            E(eV) 
   0   1.0000     -10.296969      -280.1948 
   1   1.0000      -0.825601       -22.4657 
   2   1.0000      -0.488272       -13.2866 
   3   1.0000      -0.488258       -13.2862 
   4   1.0000      -0.397980       -10.8296 
   5   0.0000       0.074373         2.0238 
   6   0.0000       0.161542         4.3958 
   7   0.0000       0.161548         4.3960 
   8   0.0000       0.169053         4.6002 
   9   0.0000       0.193642         5.2693 
  10   0.0000       0.193643         5.2693 
  11   0.0000       0.240509         6.5446 
  12   0.0000       0.252979         6.8839 
  13   0.0000       0.252986         6.8841 
  14   0.0000       0.315496         8.5851 
  15   0.0000       0.349112         9.4998 
  16   0.0000       0.349116         9.4999 
  17   0.0000       0.350224         9.5301 
  18   0.0000       0.382025        10.3954 
  19   0.0000       0.382891        10.4190 
  20   0.0000       0.382896        10.4191 
  21   0.0000       0.394473        10.7342 
  22   0.0000       0.394484        10.7344 
  23   0.0000       0.529031        14.3957 
  24   0.0000       0.563099        15.3227 
  25   0.0000       0.563107        15.3229 
  26   0.0000       0.675230        18.3740 
  27   0.0000       0.784919        21.3587 
  28   0.0000       0.786519        21.4023 
  29   0.0000       0.786527        21.4025 
  30   0.0000       0.867420        23.6037 
  31   0.0000       0.867437        23.6042 
  32   0.0000       0.955381        25.9972 
  33   0.0000       1.162368        31.6296 
  34   0.0000       1.162403        31.6306 
  35   0.0000       1.646965        44.8162 
  36   0.0000       1.747604        47.5547 
  37   0.0000       1.747627        47.5553 
  38   0.0000       1.800522        48.9947 
  39   0.0000       1.838547        50.0294 
  40   0.0000       1.939852        52.7861 
  41   0.0000       1.939892        52.7872 
  42   0.0000       2.189768        59.5866 
  43   0.0000       2.189796        59.5874 
  44   0.0000       2.209242        60.1165 
  45   0.0000       2.532812        68.9213 
  46   0.0000       2.644335        71.9560 
  47   0.0000       2.644460        71.9594 
  48   0.0000       2.730242        74.2937 
  49   0.0000       2.730301        74.2953 
  50   0.0000       2.771267        75.4100 
  51   0.0000       3.130498        85.1852 
  52   0.0000       3.154188        85.8298 
  53   0.0000       3.154293        85.8327 
  54   0.0000       3.247455        88.3677 
  55   0.0000       3.308867        90.0388 
  56   0.0000       3.355020        91.2947 
  57   0.0000       3.355074        91.2962 
  58   0.0000       3.729547       101.4861 
  59   0.0000       3.729588       101.4872 
  60   0.0000       4.269856       116.1887 
  61   0.0000       4.486757       122.0909 
  62   0.0000       4.486791       122.0918 
  63   0.0000      22.178410       603.5052 

                 SPIN DOWN ORBITALS
  NO   OCC          E(Eh)            E(eV) 
   0   1.0000     -10.285057      -279.8706 
   1   1.0000      -0.791611       -21.5408 
   2   1.0000      -0.472307       -12.8521 
   3   1.0000      -0.472294       -12.8518 
   4   0.0000      -0.042864        -1.1664 
   5   0.0000       0.082468         2.2441 
   6   0.0000       0.166707         4.5363 
   7   0.0000       0.166708         4.5364 
   8   0.0000       0.201396         5.4803 
   9   0.0000       0.201396         5.4803 
  10   0.0000       0.204049         5.5524 
  11   0.0000       0.255250         6.9457 
  12   0.0000       0.256439         6.9781 
  13   0.0000       0.256442         6.9781 
  14   0.0000       0.322855         8.7853 
  15   0.0000       0.366106         9.9622 
  16   0.0000       0.366111         9.9624 
  17   0.0000       0.367870        10.0103 
  18   0.0000       0.381808        10.3895 
  19   0.0000       0.389795        10.6069 
  20   0.0000       0.389798        10.6070 
  21   0.0000       0.402627        10.9560 
  22   0.0000       0.402628        10.9561 
  23   0.0000       0.567300        15.4370 
  24   0.0000       0.567517        15.4429 
  25   0.0000       0.567519        15.4430 
  26   0.0000       0.683538        18.6000 
  27   0.0000       0.792102        21.5542 
  28   0.0000       0.799509        21.7558 
  29   0.0000       0.799524        21.7562 
  30   0.0000       0.886479        24.1223 
  31   0.0000       0.886513        24.1232 
  32   0.0000       0.972367        26.4595 
  33   0.0000       1.173795        31.9406 
  34   0.0000       1.173805        31.9408 
  35   0.0000       1.717797        46.7436 
  36   0.0000       1.757724        47.8301 
  37   0.0000       1.757729        47.8302 
  38   0.0000       1.801920        49.0327 
  39   0.0000       1.852230        50.4017 
  40   0.0000       1.954950        53.1969 
  41   0.0000       1.954956        53.1970 
  42   0.0000       2.199923        59.8630 
  43   0.0000       2.199934        59.8633 
  44   0.0000       2.212796        60.2132 
  45   0.0000       2.547512        69.3213 
  46   0.0000       2.652342        72.1739 
  47   0.0000       2.652365        72.1745 
  48   0.0000       2.756308        75.0029 
  49   0.0000       2.756336        75.0037 
  50   0.0000       2.793842        76.0243 
  51   0.0000       3.181811        86.5815 
  52   0.0000       3.200718        87.0960 
  53   0.0000       3.200779        87.0976 
  54   0.0000       3.270197        88.9866 
  55   0.0000       3.329520        90.6008 
  56   0.0000       3.392783        92.3223 
  57   0.0000       3.392805        92.3229 
  58   0.0000       3.774402       102.7067 
  59   0.0000       3.774439       102.7077 
  60   0.0000       4.292756       116.8118 
  61   0.0000       4.509477       122.7091 
  62   0.0000       4.509532       122.7106 
  63   0.0000      22.198471       604.0511 

                    ********************************
                    * MULLIKEN POPULATION ANALYSIS *
                    ********************************

--------------------------------------------
MULLIKEN ATOMIC CHARGES AND SPIN POPULATIONS
--------------------------------------------
   0 C :   -0.692797    0.889897
   1 H :    0.230663    0.036757
   2 H :    0.231066    0.036673
   3 H :    0.231067    0.036673
Sum of atomic charges         :   -0.0000000
Sum of atomic spin populations:    1.0000000

-----------------------------------------------------
MULLIKEN REDUCED ORBITAL CHARGES AND SPIN POPULATIONS
-----------------------------------------------------
CHARGE
  0 C s       :     3.305727  s :     3.305727
      pz      :     0.968298  p :     3.330405
      px      :     1.181045
      py      :     1.181062
      dz2     :     0.000127  d :     0.056122
      dxz     :     0.020717
      dyz     :     0.020719
      dx2y2   :     0.007273
      dxy     :     0.007285
      f0      :     0.000245  f :     0.000543
      f+1     :     0.000054
      f-1     :     0.000053
      f+2     :    -0.000046
      f-2     :    -0.000044
      f+3     :     0.000280
      f-3     :     0.000000
  1 H s       :     0.728253  s :     0.728253
      pz      :     0.022469  p :     0.041084
      px      :     0.012360
      py      :     0.006255
  2 H s       :     0.727970  s :     0.727970
      pz      :     0.022437  p :     0.040964
      px      :     0.007745
      py      :     0.010783
  3 H s       :     0.727969  s :     0.727969
      pz      :     0.022436  p :     0.040964
      px      :     0.007745
      py      :     0.010783

SPIN
  0 C s       :     0.036000  s :     0.036000
      pz      :     0.856132  p :     0.866065
      px      :     0.004916
      py      :     0.005017
      dz2     :    -0.000209  d :    -0.011777
      dxz     :    -0.005325
      dyz     :    -0.005323
      dx2y2   :    -0.000461
      dxy     :    -0.000459
      f0      :    -0.000468  f :    -0.000391
      f+1     :     0.000101
      f-1     :     0.000101
      f+2     :    -0.000013
      f-2     :    -0.000013
      f+3     :    -0.000099
      f-3     :     0.000000
  1 H s       :     0.015653  s :     0.015653
      pz      :     0.019109  p :     0.021104
      px      :    -0.000776
      py      :     0.002771
  2 H s       :     0.015609  s :     0.015609
      pz      :     0.019074  p :     0.021064
      px      :     0.001876
      py      :     0.000114
  3 H s       :     0.015609  s :     0.015609
      pz      :     0.019074  p :     0.021064
      px      :     0.001876
      py      :     0.000114


                     *******************************
                     * LOEWDIN POPULATION ANALYSIS *
                     *******************************

-------------------------------------------
LOEWDIN ATOMIC CHARGES AND SPIN POPULATIONS
-------------------------------------------
   0 C :    0.054170    0.837580
   1 H :   -0.018075    0.054143
   2 H :   -0.018048    0.054139
   3 H :   -0.018048    0.054139

----------------------------------------------------
LOEWDIN REDUCED ORBITAL CHARGES AND SPIN POPULATIONS
----------------------------------------------------
CHARGE
  0 C s       :     2.901718  s :     2.901718
      pz      :     0.763244  p :     2.910034
      px      :     1.073396
      py      :     1.073394
      dz2     :     0.002371  d :     0.122188
      dxz     :     0.034195
      dyz     :     0.034196
      dx2y2   :     0.025711
      dxy     :     0.025716
      f0      :     0.001402  f :     0.011890
      f+1     :     0.000316
      f-1     :     0.000315
      f+2     :     0.003929
      f-2     :     0.003931
      f+3     :     0.001996
      f-3     :     0.000000
  1 H s       :     0.744342  s :     0.744342
      pz      :     0.072464  p :     0.273733
      px      :     0.121062
      py      :     0.080207
  2 H s       :     0.744331  s :     0.744331
      pz      :     0.072464  p :     0.273717
      px      :     0.090412
      py      :     0.110840
  3 H s       :     0.744331  s :     0.744331
      pz      :     0.072464  p :     0.273717
      px      :     0.090412
      py      :     0.110840

SPIN
  0 C s       :     0.131877  s :     0.131877
      pz      :     0.673320  p :     0.717227
      px      :     0.021956
      py      :     0.021952
      dz2     :     0.000996  d :    -0.011436
      dxz     :    -0.004727
      dyz     :    -0.004731
      dx2y2   :    -0.001489
      dxy     :    -0.001486
      f0      :    -0.000171  f :    -0.000088
      f+1     :     0.000115
      f-1     :     0.000115
      f+2     :    -0.000221
      f-2     :    -0.000221
      f+3     :     0.000294
      f-3     :     0.000000
  1 H s       :     0.000418  s :     0.000418
      pz      :     0.051949  p :     0.053725
      px      :     0.002880
      py      :    -0.001104
  2 H s       :     0.000416  s :     0.000416
      pz      :     0.051942  p :     0.053723
      px      :    -0.000110
      py      :     0.001890
  3 H s       :     0.000416  s :     0.000416
      pz      :     0.051942  p :     0.053723
      px      :    -0.000110
      py      :     0.001890


                      *****************************
                      * MAYER POPULATION ANALYSIS *
                      *****************************

  NA   - Mulliken gross atomic population
  ZA   - Total nuclear charge
  QA   - Mulliken gross atomic charge
  VA   - Mayer's total valence
  BVA  - Mayer's bonded valence
  FA   - Mayer's free valence

  ATOM       NA         ZA         QA         VA         BVA        FA
  0 C      6.6928     6.0000    -0.6928     3.8395     3.0752     0.7642
  1 H      0.7693     1.0000     0.2307     1.0023     1.0009     0.0015
  2 H      0.7689     1.0000     0.2311     1.0018     1.0003     0.0015
  3 H      0.7689     1.0000     0.2311     1.0018     1.0003     0.0015

  Mayer bond orders larger than 0.100000
B(  0-C ,  1-H ) :   1.0254 B(  0-C ,  2-H ) :   1.0249 B(  0-C ,  3-H ) :   1.0249 


-------
TIMINGS
-------

Total SCF time: 0 days 0 hours 0 min 18 sec 

Total time                  ....      18.424 sec
Sum of individual times     ....      16.296 sec  ( 88.4%)

Fock matrix formation       ....      13.157 sec  ( 71.4%)
  Split-RI-J                ....       1.298 sec  (  9.9% of F)
  Chain of spheres X        ....       1.555 sec  ( 11.8% of F)
  XC integration            ....       2.726 sec  ( 20.7% of F)
    Basis function eval.    ....       0.051 sec  (  1.9% of XC)
    Density eval.           ....       0.068 sec  (  2.5% of XC)
    XC-Functional eval.     ....       0.065 sec  (  2.4% of XC)
    XC-Potential eval.      ....       0.070 sec  (  2.6% of XC)
Diagonalization             ....       0.292 sec  (  1.6%)
Density matrix formation    ....       0.015 sec  (  0.1%)
Population analysis         ....       0.366 sec  (  2.0%)
Initial guess               ....       0.233 sec  (  1.3%)
Orbital Transformation      ....       0.000 sec  (  0.0%)
Orbital Orthonormalization  ....       0.000 sec  (  0.0%)
DIIS solution               ....       1.371 sec  (  7.4%)
Grid generation             ....       0.862 sec  (  4.7%)

Maximum memory used throughout the entire SCF-calculation: 58.5 MB


-------------------------------------------------------------------------------
                          DFT DISPERSION CORRECTION                            
                                                                               
                              DFTD3 V3.1  Rev 1                                
                              USING zero damping                               
-------------------------------------------------------------------------------
The omegaB97X-D3 functional is recognized. Fit by Chai et al.
Active option DFTDOPT                   ...         3   

molecular C6(AA) [au] = 106.955899 


            DFT-D V3
 parameters
 s6 scaling factor         :     1.0000 
 rs6 scaling factor        :     1.2810 
 s8 scaling factor         :     1.0000 
 rs8 scaling factor        :     1.0940 
 Damping factor alpha6     :    14.0000 
 Damping factor alpha8     :    16.0000 
 ad hoc parameters k1-k3   :    16.0000     1.3333    -4.0000 

 Edisp/kcal,au: -0.003477409913  -0.000005541605 
 E6   /kcal   :  -0.000540204 
 E8   /kcal   :  -0.002937206 
 % E8         :  84.465333076 

-------------------------   ----------------
Dispersion correction           -0.000005542
-------------------------   ----------------


-------------------------   --------------------
FINAL SINGLE POINT ENERGY       -39.796772507307
-------------------------   --------------------



           ************************************************************
           *        Program running with 18 parallel MPI-processes    *
           *              working on a common directory               *
           ************************************************************
------------------------------------------------------------------------------
                         ORCA SCF GRADIENT CALCULATION
------------------------------------------------------------------------------

 ... reading COSX grid (gridx3)
Gradient of the Kohn-Sham DFT energy:
Kohn-Sham wavefunction type      ... UKS
Hartree-Fock exchange scaling    ...    0.196
Number of operators              ...    2
Number of atoms                  ...    4
Basis set dimensions             ...   64
Integral neglect threshold       ... 2.5e-11
Integral primitive cutoff        ... 2.5e-12
SHARK Integral package           ... ON

Nuc. rep. gradient       (SHARK) ... done (  0.0 sec)
HCore & Overlap gradient (SHARK) ... done (  0.0 sec)
RI-J gradient            (SHARK) ... done (  0.1 sec)
COSX-gradient                    ... done (  0.1 sec)
Exchange-correlation gradient    ... done
Dispersion correction            ... done

------------------
CARTESIAN GRADIENT
------------------

WARNING: THERE ARE 3 CONSTRAINED CARTESIAN COORDINATES
   1   C   :   -0.000082482   -0.000000032    0.075889768
   2   H   :   -0.031581319   -0.000000019   -0.025293642
   3   H   :    0.015812781   -0.027306098   -0.025276260
   4   H   :    0.015812762    0.027306068   -0.025276236

Difference to translation invariance:
           :   -0.0000382585   -0.0000000804    0.0000436296

Difference to rotation invariance:
           :   -0.0000000875   -0.0000158811   -0.0000000360

Norm of the cartesian gradient     ...    0.1032740092
RMS gradient                       ...    0.0298126385
MAX gradient                       ...    0.0758897679

-------
TIMINGS
-------

Total SCF gradient time            ...        0.786 sec

One electron gradient       ....       0.007 sec  (  0.8%)
RI-J Coulomb gradient       ....       0.132 sec  ( 16.9%)
COSX gradient               ....       0.132 sec  ( 16.8%)
XC gradient                 ....       0.071 sec  (  9.1%)

Maximum memory used throughout the entire SCFGRAD-calculation: 33.6 MB
------------------------------------------------------------------------------
                         ORCA GEOMETRY RELAXATION STEP
------------------------------------------------------------------------------

Reading the OPT-File                    .... done
Getting information on internals        .... done
Copying old internal coords+grads       .... done
Making the new internal coordinates     .... (new redundants).... done
Validating the new internal coordinates .... (new redundants).... done
Calculating the B-matrix                .... done
Calculating the G,G- and P matrices     .... done
Transforming gradient to internals      .... done
Projecting the internal gradient        .... done
Number of atoms                         ....   4
Number of internal coordinates          ....   7
Current Energy                          ....   -39.796772507 Eh
Current gradient norm                   ....     0.103274009 Eh/bohr
Maximum allowed component of the step   ....  0.300
Current trust radius                    ....  0.300
Evaluating the initial hessian          ....  (Almloef) done
Projecting the Hessian                  .... done
Forming the augmented Hessian           .... done
Diagonalizing the augmented Hessian     .... done
Last element of RFO vector              ....  0.997888636
Lowest eigenvalues of augmented Hessian:
 -0.001589247  0.373574723  0.373574723  0.375163970 1000.000000000
Length of the computed step             ....  0.065085625
The final length of the internal step   ....  0.065085625
Converting the step to cartesian space:
 Initial RMS(Int)=    0.0246000541
Transforming coordinates:
 Iter   0:  RMS(Cart)=    0.0168288009 RMS(Int)=    0.0246000541
 Iter   1:  RMS(Cart)=    0.0000000000 RMS(Int)=    0.0000000000
Imposing constraints:
 Iter   0:  RMS(Cart)=    0.0000000007 RMS(Int)=    0.0000000009
CONVERGED
done
Storing new coordinates                 .... done

                                .--------------------.
          ----------------------|Geometry convergence|-------------------------
          Item                value                   Tolerance       Converged
          ---------------------------------------------------------------------
          RMS gradient        0.0092290540            0.0001000000      NO
          MAX gradient        0.0140997812            0.0003000000      NO
          RMS step            0.0246000541            0.0020000000      NO
          MAX step            0.0375829833            0.0040000000      NO
          ........................................................
          Max(Bonds)      0.0199      Max(Angles)    0.00
          Max(Dihed)        0.00      Max(Improp)    0.00
          ---------------------------------------------------------------------

The optimization has not yet converged - more geometry cycles are needed


    ---------------------------------------------------------------------------
                         Redundant Internal Coordinates
                            (Angstroem and degrees)

        Definition                    Value    dE/dq     Step     New-Value
    ----------------------------------------------------------------------------
     1. B(H   1,C   0)                1.0800 -0.014093  0.0199    1.0999   
     2. B(H   2,C   0)                1.0800 -0.014100  0.0199    1.0999   
     3. B(H   3,C   0)                1.0800 -0.014100  0.0199    1.0999   
     4. A(H   2,C   0,H   3)           96.00 -0.054319   -0.00     96.00 C 
     5. A(H   1,C   0,H   2)           96.00 -0.025640    0.00     96.00 C 
     6. A(H   1,C   0,H   3)           96.00 -0.025639    0.00     96.00 C 
     7. I(H   1,H   3,H   2,C   0)     81.01  0.043352   -0.00     81.01   
    ----------------------------------------------------------------------------

         *************************************************************
         *                GEOMETRY OPTIMIZATION CYCLE   2            *
         *************************************************************
---------------------------------
CARTESIAN COORDINATES (ANGSTROEM)
---------------------------------
  C      0.000003    0.000000    0.007658
  H      0.943818    0.000000   -0.557095
  H     -0.471911    0.817376   -0.557097
  H     -0.471911   -0.817376   -0.557097

----------------------------
CARTESIAN COORDINATES (A.U.)
----------------------------
  NO LB      ZA    FRAG     MASS         X           Y           Z
   0 C     6.0000    0    12.011    0.000005    0.000000    0.014471
   1 H     1.0000    0     1.008    1.783558    0.000000   -1.052757
   2 H     1.0000    0     1.008   -0.891782    1.544617   -1.052760
   3 H     1.0000    0     1.008   -0.891782   -1.544617   -1.052760

--------------------------------
INTERNAL COORDINATES (ANGSTROEM)
--------------------------------
 C      0   0   0     0.000000000000     0.00000000     0.00000000
 H      1   0   0     1.099878890609     0.00000000     0.00000000
 H      1   2   0     1.099888048529    95.99999995     0.00000000
 H      1   2   3     1.099888058173    95.99999995    96.70342332

---------------------------
INTERNAL COORDINATES (A.U.)
---------------------------
 C      0   0   0     0.000000000000     0.00000000     0.00000000
 H      1   0   0     2.078469883732     0.00000000     0.00000000
 H      1   2   0     2.078487189693    95.99999995     0.00000000
 H      1   2   3     2.078487207918    95.99999995    96.70342332



           ************************************************************
           *        Program running with 18 parallel MPI-processes    *
           *              working on a common directory               *
           ************************************************************
------------------------------------------------------------------------------
                   ___                                                        
                  /   \      - P O W E R E D   B Y -                         
                 /     \                                                     
                 |  |  |   _    _      __       _____    __    __             
                 |  |  |  | |  | |    /  \     |  _  \  |  |  /  |          
                  \  \/   | |  | |   /    \    | | | |  |  | /  /          
                 / \  \   | |__| |  /  /\  \   | |_| |  |  |/  /          
                |  |  |   |  __  | /  /__\  \  |    /   |      \           
                |  |  |   | |  | | |   __   |  |    \   |  |\   \          
                \     /   | |  | | |  |  |  |  | |\  \  |  | \   \       
                 \___/    |_|  |_| |__|  |__|  |_| \__\ |__|  \__/        
                                                                              
                      - O R C A' S   B I G   F R I E N D -                    
                                      &                                       
                       - I N T E G R A L  F E E D E R -                       
                                                                              
 v1 FN, 2020, v2 2021                                                         
------------------------------------------------------------------------------


Reading SHARK input file /beegfs/scratch/ispackman/PFAS_EPR_calcs/benchmark/JChemEd_CF3_radical/CH3_radical_96.0_degrees_IN-PROGRESS/CH3_radical_96.0_degrees.SHARKINP.tmp ... ok
----------------------
SHARK INTEGRAL PACKAGE
----------------------

Number of atoms                             ...      4
Number of basis functions                   ...     64
Number of shells                            ...     28
Maximum angular momentum                    ...      3
Integral batch strategy                     ... SHARK/LIBINT Hybrid
RI-J (if used) integral strategy            ... SPLIT-RIJ (Revised 2003 algorithm where possible)
Printlevel                                  ...      1
Contraction scheme used                     ... SEGMENTED contraction
Coulomb Range Separation                    ... NOT USED
Exchange Range Separation                   ... Long Range
   Mu parameter                             ...  0.250000
   Scaling (regular/separated)              ...  0.195728  0.804272
Finite Nucleus Model                        ... NOT USED
Auxiliary Coulomb fitting basis             ... AVAILABLE
   # of basis functions in Aux-J            ...     82
   # of shells in Aux-J                     ...     30
   Maximum angular momentum in Aux-J        ...      4
Auxiliary J/K fitting basis                 ... NOT available
Auxiliary Correlation fitting basis         ... NOT available
Auxiliary 'external' fitting basis          ... NOT available
Integral threshold                          ...     2.500000e-11
Primitive cut-off                           ...     2.500000e-12
Primitive pair pre-selection threshold      ...     2.500000e-12

Calculating pre-screening integrals         ... done (  0.0 sec) Dimension = 28
Organizing shell pair data                  ... done (  0.0 sec)
Shell pair information
Total number of shell pairs                 ...       406
Shell pairs after pre-screening             ...       406
Total number of primitive shell pairs       ...       977
Primitive shell pairs kept                  ...       947
          la=0 lb=0:    120 shell pairs
          la=1 lb=0:    135 shell pairs
          la=1 lb=1:     45 shell pairs
          la=2 lb=0:     45 shell pairs
          la=2 lb=1:     27 shell pairs
          la=2 lb=2:      6 shell pairs
          la=3 lb=0:     15 shell pairs
          la=3 lb=1:      9 shell pairs
          la=3 lb=2:      3 shell pairs
          la=3 lb=3:      1 shell pairs

Calculating one electron integrals          ... done (  0.0 sec)
Calculating RI/J V-Matrix + Cholesky decomp.... done (  0.2 sec)
Calculating Nuclear repulsion               ... done (  0.0 sec) ENN=      9.631286012269 Eh

SHARK setup successfully completed in   0.6 seconds

Maximum memory used throughout the entire GTOINT-calculation: 14.0 MB


           ************************************************************
           *        Program running with 18 parallel MPI-processes    *
           *              working on a common directory               *
           ************************************************************

Diagonalization of the overlap matrix:
Smallest eigenvalue                        ... 4.033e-05
Time for diagonalization                   ...    0.002 sec
Threshold for overlap eigenvalues          ... 1.000e-08
Number of eigenvalues below threshold      ... 0
Time for construction of square roots      ...    0.078 sec
Total time needed                          ...    0.081 sec

-------------------
DFT GRID GENERATION
-------------------

General Integration Accuracy     IntAcc      ... 4.388
Radial Grid Type                 RadialGrid  ... OptM3 with GC (2021)
Angular Grid (max. ang.)         AngularGrid ... 4 (Lebedev-302)
Angular grid pruning method      GridPruning ... 4 (adaptive)
Weight generation scheme         WeightScheme... Becke
Basis function cutoff            BFCut       ... 1.0000e-11
Integration weight cutoff        WCut        ... 1.0000e-14
Angular grids for H and He will be reduced by one unit
Partially contracted basis set               ... off
Rotationally invariant grid construction     ... off

Total number of grid points                  ...    17036
Total number of batches                      ...      268
Average number of points per batch           ...       63
Average number of grid points per atom       ...     4259
Time for grid setup =    0.175 sec

--------------------
COSX GRID GENERATION
--------------------

GRIDX 1
-------
General Integration Accuracy     IntAcc      ... 3.816
Radial Grid Type                 RadialGrid  ... OptM3 with GC (2021)
Angular Grid (max. ang.)         AngularGrid ... 1 (Lebedev-50)
Angular grid pruning method      GridPruning ... 4 (adaptive)
Weight generation scheme         WeightScheme... Becke
Basis function cutoff            BFCut       ... 1.0000e-11
Integration weight cutoff        WCut        ... 1.0000e-14
Angular grids for H and He will be reduced by one unit
Partially contracted basis set               ... on
Rotationally invariant grid construction     ... off

Total number of grid points                  ...     2144
Total number of batches                      ...       36
Average number of points per batch           ...       59
Average number of grid points per atom       ...      536
UseSFitting                                  ... on

GRIDX 2
-------
General Integration Accuracy     IntAcc      ... 4.020
Radial Grid Type                 RadialGrid  ... OptM3 with GC (2021)
Angular Grid (max. ang.)         AngularGrid ... 2 (Lebedev-110)
Angular grid pruning method      GridPruning ... 4 (adaptive)
Weight generation scheme         WeightScheme... Becke
Basis function cutoff            BFCut       ... 1.0000e-11
Integration weight cutoff        WCut        ... 1.0000e-14
Angular grids for H and He will be reduced by one unit
Partially contracted basis set               ... on
Rotationally invariant grid construction     ... off

Total number of grid points                  ...     5056
Total number of batches                      ...       80
Average number of points per batch           ...       63
Average number of grid points per atom       ...     1264
UseSFitting                                  ... on

GRIDX 3
-------
General Integration Accuracy     IntAcc      ... 4.338
Radial Grid Type                 RadialGrid  ... OptM3 with GC (2021)
Angular Grid (max. ang.)         AngularGrid ... 3 (Lebedev-194)
Angular grid pruning method      GridPruning ... 4 (adaptive)
Weight generation scheme         WeightScheme... Becke
Basis function cutoff            BFCut       ... 1.0000e-11
Integration weight cutoff        WCut        ... 1.0000e-14
Angular grids for H and He will be reduced by one unit
Partially contracted basis set               ... on
Rotationally invariant grid construction     ... off

Total number of grid points                  ...    11716
Total number of batches                      ...      185
Average number of points per batch           ...       63
Average number of grid points per atom       ...     2929
UseSFitting                                  ... on

Time for X-Grid setup             =    0.700 sec

--------------
SCF ITERATIONS
--------------
ITER       Energy         Delta-E        Max-DP      RMS-DP      [F,P]     Damp
               ***  Starting incremental Fock matrix formation  ***
  0    -39.7973495232   0.000000000000 0.01967804  0.00032196  0.0062471 0.7000
  1    -39.7974236003  -0.000074077089 0.01703871  0.00027972  0.0045505 0.7000
                               ***Turning on DIIS***
  2    -39.7974732178  -0.000049617498 0.04359109  0.00071717  0.0033020 0.0000
  3    -39.7975823563  -0.000109138512 0.00717268  0.00012302  0.0008146 0.0000
               *** Restarting incremental Fock matrix formation ***
                                   *** Resetting DIIS ***
  4    -39.7975875411  -0.000005184876 0.00115273  0.00002638  0.0003922 0.0000
  5    -39.7975883894  -0.000000848250 0.00052502  0.00001045  0.0002275 0.0000
  6    -39.7975887604  -0.000000371042 0.00029168  0.00000644  0.0000493 0.0000
  7    -39.7975887890  -0.000000028581 0.00010606  0.00000202  0.0000112 0.0000
                 **** Energy Check signals convergence ****

               *****************************************************
               *                     SUCCESS                       *
               *           SCF CONVERGED AFTER   8 CYCLES          *
               *****************************************************

Old exchange energy                            =     -2.167463903 Eh
New exchange energy                            =     -2.167467386 Eh
Exchange energy change after final integration =     -0.000003483 Eh
Total energy after final integration           =    -39.797592273 Eh
Final COS-X integration done in                =     0.115 sec
Total Energy       :          -39.79759227 Eh           -1082.94754 eV
  Last Energy change         ...   -1.2405e-09  Tolerance :   1.0000e-08
  Last MAX-Density change    ...    0.0000e+00  Tolerance :   1.0000e-07
             **** THE GBW FILE WAS UPDATED (/beegfs/scratch/ispackman/PFAS_EPR_calcs/benchmark/JChemEd_CF3_radical/CH3_radical_96.0_degrees_IN-PROGRESS/CH3_radical_96.0_degrees.gbw) ****
             **** DENSITY /beegfs/scratch/ispackman/PFAS_EPR_calcs/benchmark/JChemEd_CF3_radical/CH3_radical_96.0_degrees_IN-PROGRESS/CH3_radical_96.0_degrees.scfp WAS UPDATED ****
             **** ENERGY FILE WAS UPDATED (/beegfs/scratch/ispackman/PFAS_EPR_calcs/benchmark/JChemEd_CF3_radical/CH3_radical_96.0_degrees_IN-PROGRESS/CH3_radical_96.0_degrees.en.tmp) ****
----------------------
UHF SPIN CONTAMINATION
----------------------

Warning: in a DFT calculation there is little theoretical justification to 
         calculate <S**2> as in Hartree-Fock theory. We will do it anyways
         but you should keep in mind that the values have only limited relevance

Expectation value of <S**2>     :     0.753318
Ideal value S*(S+1) for S=0.5   :     0.750000
Deviation                       :     0.003318

             **** THE GBW FILE WAS UPDATED (/beegfs/scratch/ispackman/PFAS_EPR_calcs/benchmark/JChemEd_CF3_radical/CH3_radical_96.0_degrees_IN-PROGRESS/CH3_radical_96.0_degrees.gbw) ****
             **** DENSITY /beegfs/scratch/ispackman/PFAS_EPR_calcs/benchmark/JChemEd_CF3_radical/CH3_radical_96.0_degrees_IN-PROGRESS/CH3_radical_96.0_degrees.scfp WAS UPDATED ****
Total SCF time: 0 days 0 hours 0 min 12 sec 

Maximum memory used throughout the entire SCF-calculation: 58.5 MB


-------------------------------------------------------------------------------
                          DFT DISPERSION CORRECTION                            
                                                                               
                              DFTD3 V3.1  Rev 1                                
                              USING zero damping                               
-------------------------------------------------------------------------------
-------------------------   ----------------
Dispersion correction           -0.000006415
-------------------------   ----------------


-------------------------   --------------------
FINAL SINGLE POINT ENERGY       -39.797598687719
-------------------------   --------------------



           ************************************************************
           *        Program running with 18 parallel MPI-processes    *
           *              working on a common directory               *
           ************************************************************
------------------------------------------------------------------------------
                         ORCA SCF GRADIENT CALCULATION
------------------------------------------------------------------------------

 ... reading COSX grid (gridx3)
Gradient of the Kohn-Sham DFT energy:
Kohn-Sham wavefunction type      ... UKS
Hartree-Fock exchange scaling    ...    0.196
Number of operators              ...    2
Number of atoms                  ...    4
Basis set dimensions             ...   64
Integral neglect threshold       ... 2.5e-11
Integral primitive cutoff        ... 2.5e-12
SHARK Integral package           ... ON

Nuc. rep. gradient       (SHARK) ... done (  0.0 sec)
HCore & Overlap gradient (SHARK) ... done (  0.0 sec)
RI-J gradient            (SHARK) ... done (  0.1 sec)
COSX-gradient                    ... done (  0.1 sec)
Exchange-correlation gradient    ... done
Dispersion correction            ... done

------------------
CARTESIAN GRADIENT
------------------

WARNING: THERE ARE 3 CONSTRAINED CARTESIAN COORDINATES
   1   C   :   -0.000093157   -0.000000005    0.092548553
   2   H   :   -0.019388768   -0.000000029   -0.030845645
   3   H   :    0.009720367   -0.016750466   -0.030832475
   4   H   :    0.009720337    0.016750484   -0.030832486

Difference to translation invariance:
           :   -0.0000412220   -0.0000000158    0.0000379473

Difference to rotation invariance:
           :    0.0000000053   -0.0000332739   -0.0000001141

Norm of the cartesian gradient     ...    0.1120001447
RMS gradient                       ...    0.0323316569
MAX gradient                       ...    0.0925485527

-------
TIMINGS
-------

Total SCF gradient time            ...        0.746 sec

One electron gradient       ....       0.007 sec  (  0.9%)
RI-J Coulomb gradient       ....       0.133 sec  ( 17.9%)
COSX gradient               ....       0.133 sec  ( 17.8%)
XC gradient                 ....       0.079 sec  ( 10.6%)

Maximum memory used throughout the entire SCFGRAD-calculation: 33.6 MB
------------------------------------------------------------------------------
                         ORCA GEOMETRY RELAXATION STEP
------------------------------------------------------------------------------

Reading the OPT-File                    .... done
Getting information on internals        .... done
Copying old internal coords+grads       .... done
Making the new internal coordinates     .... (new redundants).... done
Validating the new internal coordinates .... (new redundants).... done
Calculating the B-matrix                .... done
Calculating the G,G- and P matrices     .... done
Transforming gradient to internals      .... done
Projecting the internal gradient        .... done
Number of atoms                         ....   4
Number of internal coordinates          ....   7
Current Energy                          ....   -39.797598688 Eh
Current gradient norm                   ....     0.112000145 Eh/bohr
Maximum allowed component of the step   ....  0.300
Current trust radius                    ....  0.300
Updating the Hessian (BFGS)             .... done
Forming the augmented Hessian           .... done
Diagonalizing the augmented Hessian     .... done
Last element of RFO vector              ....  0.999992607
Lowest eigenvalues of augmented Hessian:
 -0.000005238  0.354240448  0.373574723  0.373576109 999.999999996
Length of the computed step             ....  0.003845172
The final length of the internal step   ....  0.003845172
Converting the step to cartesian space:
 Initial RMS(Int)=    0.0014533383
Transforming coordinates:
 Iter   0:  RMS(Cart)=    0.0009942152 RMS(Int)=    0.0014533383
 Iter   1:  RMS(Cart)=    0.0000000000 RMS(Int)=    0.0000000000
Imposing constraints:
 Iter   0:  RMS(Cart)=    0.0000000002 RMS(Int)=    0.0000000004
CONVERGED
done
Storing new coordinates                 .... done

                                .--------------------.
          ----------------------|Geometry convergence|-------------------------
          Item                value                   Tolerance       Converged
          ---------------------------------------------------------------------
          Energy change      -0.0008261804            0.0000050000      NO
          RMS gradient        0.0005148312            0.0001000000      NO
          MAX gradient        0.0007907521            0.0003000000      NO
          RMS step            0.0014533383            0.0020000000      YES
          MAX step            0.0022322971            0.0040000000      YES
          ........................................................
          Max(Bonds)      0.0012      Max(Angles)    0.00
          Max(Dihed)        0.00      Max(Improp)    0.00
          ---------------------------------------------------------------------

The optimization has not yet converged - more geometry cycles are needed


    ---------------------------------------------------------------------------
                         Redundant Internal Coordinates
                            (Angstroem and degrees)

        Definition                    Value    dE/dq     Step     New-Value
    ----------------------------------------------------------------------------
     1. B(H   1,C   0)                1.0999 -0.000778  0.0012    1.1010   
     2. B(H   2,C   0)                1.0999 -0.000791  0.0012    1.1011   
     3. B(H   3,C   0)                1.0999 -0.000791  0.0012    1.1011   
     4. A(H   2,C   0,H   3)           96.00 -0.053134   -0.00     96.00 C 
     5. A(H   1,C   0,H   2)           96.00 -0.025085   -0.00     96.00 C 
     6. A(H   1,C   0,H   3)           96.00 -0.025085   -0.00     96.00 C 
     7. I(H   1,H   3,H   2,C   0)     81.01  0.042413    0.00     81.01   
    ----------------------------------------------------------------------------

         *************************************************************
         *                GEOMETRY OPTIMIZATION CYCLE   3            *
         *************************************************************
---------------------------------
CARTESIAN COORDINATES (ANGSTROEM)
---------------------------------
  C      0.000009    0.000000    0.008110
  H      0.944819    0.000000   -0.557243
  H     -0.472414    0.818254   -0.557249
  H     -0.472414   -0.818254   -0.557249

----------------------------
CARTESIAN COORDINATES (A.U.)
----------------------------
  NO LB      ZA    FRAG     MASS         X           Y           Z
   0 C     6.0000    0    12.011    0.000017    0.000000    0.015326
   1 H     1.0000    0     1.008    1.785449    0.000000   -1.053037
   2 H     1.0000    0     1.008   -0.892733    1.546276   -1.053048
   3 H     1.0000    0     1.008   -0.892733   -1.546276   -1.053048

--------------------------------
INTERNAL COORDINATES (ANGSTROEM)
--------------------------------
 C      0   0   0     0.000000000000     0.00000000     0.00000000
 H      1   0   0     1.101040564450     0.00000000     0.00000000
 H      1   2   0     1.101069322459    95.99999992     0.00000000
 H      1   2   3     1.101069338924    95.99999992    96.70342331

---------------------------
INTERNAL COORDINATES (A.U.)
---------------------------
 C      0   0   0     0.000000000000     0.00000000     0.00000000
 H      1   0   0     2.080665129148     0.00000000     0.00000000
 H      1   2   0     2.080719473910    95.99999992     0.00000000
 H      1   2   3     2.080719505025    95.99999992    96.70342331



           ************************************************************
           *        Program running with 18 parallel MPI-processes    *
           *              working on a common directory               *
           ************************************************************
------------------------------------------------------------------------------
                   ___                                                        
                  /   \      - P O W E R E D   B Y -                         
                 /     \                                                     
                 |  |  |   _    _      __       _____    __    __             
                 |  |  |  | |  | |    /  \     |  _  \  |  |  /  |          
                  \  \/   | |  | |   /    \    | | | |  |  | /  /          
                 / \  \   | |__| |  /  /\  \   | |_| |  |  |/  /          
                |  |  |   |  __  | /  /__\  \  |    /   |      \           
                |  |  |   | |  | | |   __   |  |    \   |  |\   \          
                \     /   | |  | | |  |  |  |  | |\  \  |  | \   \       
[...]
  ZA   - Total nuclear charge
  QA   - Mulliken gross atomic charge
  VA   - Mayer's total valence
  BVA  - Mayer's bonded valence
  FA   - Mayer's free valence

  ATOM       NA         ZA         QA         VA         BVA        FA
  0 C      6.6567     6.0000    -0.6567     3.8516     3.0701     0.7815
  1 H      0.7814     1.0000     0.2186     1.0113     1.0102     0.0011
  2 H      0.7809     1.0000     0.2191     1.0106     1.0095     0.0011
  3 H      0.7810     1.0000     0.2190     1.0106     1.0095     0.0011

  Mayer bond orders larger than 0.100000
B(  0-C ,  1-H ) :   1.0238 B(  0-C ,  2-H ) :   1.0232 B(  0-C ,  3-H ) :   1.0232 


-------
TIMINGS
-------

Total SCF time: 0 days 0 hours 0 min 9 sec 

Total time                  ....       9.581 sec
Sum of individual times     ....       7.908 sec  ( 82.5%)

Fock matrix formation       ....       6.187 sec  ( 64.6%)
  Split-RI-J                ....       0.674 sec  ( 10.9% of F)
  Chain of spheres X        ....       0.900 sec  ( 14.6% of F)
  XC integration            ....       1.236 sec  ( 20.0% of F)
    Basis function eval.    ....       0.026 sec  (  2.1% of XC)
    Density eval.           ....       0.030 sec  (  2.4% of XC)
    XC-Functional eval.     ....       0.036 sec  (  2.9% of XC)
    XC-Potential eval.      ....       0.031 sec  (  2.5% of XC)
Diagonalization             ....       0.107 sec  (  1.1%)
Density matrix formation    ....       0.018 sec  (  0.2%)
Population analysis         ....       0.325 sec  (  3.4%)
Initial guess               ....       0.009 sec  (  0.1%)
Orbital Transformation      ....       0.000 sec  (  0.0%)
Orbital Orthonormalization  ....       0.002 sec  (  0.0%)
DIIS solution               ....       0.386 sec  (  4.0%)
Grid generation             ....       0.875 sec  (  9.1%)

Maximum memory used throughout the entire SCF-calculation: 58.5 MB


-------------------------------------------------------------------------------
                          DFT DISPERSION CORRECTION                            
                                                                               
                              DFTD3 V3.1  Rev 1                                
                              USING zero damping                               
-------------------------------------------------------------------------------
The omegaB97X-D3 functional is recognized. Fit by Chai et al.
Active option DFTDOPT                   ...         3   

molecular C6(AA) [au] = 107.012079 


            DFT-D V3
 parameters
 s6 scaling factor         :     1.0000 
 rs6 scaling factor        :     1.2810 
 s8 scaling factor         :     1.0000 
 rs8 scaling factor        :     1.0940 
 Damping factor alpha6     :    14.0000 
 Damping factor alpha8     :    16.0000 
 ad hoc parameters k1-k3   :    16.0000     1.3333    -4.0000 

 Edisp/kcal,au: -0.004062042288  -0.000006473276 
 E6   /kcal   :  -0.000631068 
 E8   /kcal   :  -0.003430974 
 % E8         :  84.464272385 

-------------------------   ----------------
Dispersion correction           -0.000006473
-------------------------   ----------------


-------------------------   --------------------
FINAL SINGLE POINT ENERGY       -39.797601524757
-------------------------   --------------------

                                *** OPTIMIZATION RUN DONE ***

                            ***************************************
                            *     ORCA property calculations      *
                            ***************************************

                                    ---------------------
                                    Active property flags
                                    ---------------------
   (+) Dipole Moment


------------------------------------------------------------------------------
                       ORCA ELECTRIC PROPERTIES CALCULATION
------------------------------------------------------------------------------

Dipole Moment Calculation                       ... on
Quadrupole Moment Calculation                   ... off
Polarizability Calculation                      ... off
GBWName                                         ... /beegfs/scratch/ispackman/PFAS_EPR_calcs/benchmark/JChemEd_CF3_radical/CH3_radical_96.0_degrees_IN-PROGRESS/CH3_radical_96.0_degrees.gbw
Electron density                                ... /beegfs/scratch/ispackman/PFAS_EPR_calcs/benchmark/JChemEd_CF3_radical/CH3_radical_96.0_degrees_IN-PROGRESS/CH3_radical_96.0_degrees.scfp
The origin for moment calculation is the CENTER OF MASS  = ( 0.000014,  0.000000 -0.199519)

-------------
DIPOLE MOMENT
-------------
                                X             Y             Z
Electronic contribution:      0.00015      -0.00000       0.95398
Nuclear contribution   :     -0.00003      -0.00000      -1.27125
                        -----------------------------------------
Total Dipole Moment    :      0.00012      -0.00000      -0.31728
                        -----------------------------------------
Magnitude (a.u.)       :      0.31728
Magnitude (Debye)      :      0.80646



--------------------
Rotational spectrum 
--------------------
 
Rotational constants in cm-1:     7.943597     7.943404     6.243843 
Rotational constants in MHz : 238143.054571 238137.270493 187185.699260 

 Dipole components along the rotational axes: 
x,y,z [a.u.] :     0.000000     0.000105    -0.317278 
x,y,z [Debye]:     0.000000     0.000267    -0.806457 

 


           ************************************************************
           *        Program running with 18 parallel MPI-processes    *
           *              working on a common directory               *
           ************************************************************

-------------------------------------------------------------------------------
                               ORCA SCF HESSIAN
-------------------------------------------------------------------------------

                   --------- SHARK INITIALIZATION DONE ---------

Hessian of the Kohn-Sham DFT energy:
Kohn-Sham wavefunction type                      ... UKS
Hartree-Fock exchange scaling                    ...    0.196
Number of operators                              ...    2
Number of atoms                                  ...    4
Basis set dimensions                             ...   64
Integral neglect threshold                       ... 2.5e-11
Integral primitive cutoff                        ... 2.5e-12

Setting up DFT Hessian calculations              ... 

HESS GRID
---------

General Integration Accuracy     IntAcc      ... 4.629
Radial Grid Type                 RadialGrid  ... OptM3 with GC (2021)
Angular Grid (max. ang.)         AngularGrid ... 5 (Lebedev-434)
Angular grid pruning method      GridPruning ... 4 (adaptive)
Weight generation scheme         WeightScheme... Becke
Basis function cutoff            BFCut       ... 1.0000e-11
Integration weight cutoff        WCut        ... 1.0000e-14
Angular grids for H and He will be reduced by one unit
Partially contracted basis set               ... off
Rotationally invariant grid construction     ... off

Total number of grid points                  ...    27267
Total number of batches                      ...      427
Average number of points per batch           ...       63
Average number of grid points per atom       ...     6817

Building densities                               ... done   (      0.0 sec)
Calculating rho(r) on the grid                   ... done   (      0.1 sec)
Building xc-kernel on the grid                   ... done   (      0.1 sec)
                                                     done   (      0.5 sec)

Nuclear repulsion Hessian  (SHARK)               ... done   (      0.0 sec)

----------------------------------------------
Forming right-hand sides of CP-SCF equations     ...
----------------------------------------------
One electron integral derivatives  (SHARK)       ... done   (      0.0 sec)
Transforming the overlap derivative matrices     ... done   (      0.0 sec)
Making the Q(x) pseudodensities                  ... done   (      0.0 sec)
Adding the E*S(x)*S(y) terms to the Hessian      ... done   (      0.0 sec)
Calculating energy weighted overlap derivatives  ... done   (      0.1 sec)
Two electron integral derivatives (SHARK-RI)     ... done   (      0.6 sec)
Exchange-correlation integral derivatives        ... done   (      0.4 sec)
tr(F(y)Q(x)) contribution to the Hessian         ... done   (      0.0 sec)
Response fock operator R(S(x)) (SHARK-RIJCOSX)   ... done   (      0.6 sec)
XC Response fock operator R(S(x))                ... done   (      0.2 sec)
tr(F(y)S(x)) contribution to the Hessian         ... done   (      0.0 sec)
Transforming and finalizing RHSs                 ... done   (      0.0 sec)

----------------------------------------------
Solving the CP-SCF equations (RIJCOSX)           ...
----------------------------------------------
     CP-SCF ITERATION   0:   1.3757e-01 (   0.5 sec   0/ 12 done)
     CP-SCF ITERATION   1:   3.1958e-02 (   0.3 sec   0/ 12 done)
     CP-SCF ITERATION   2:   1.2559e-02 (   0.4 sec   0/ 12 done)
     CP-SCF ITERATION   3:   4.2460e-03 (   0.4 sec   0/ 12 done)
     CP-SCF ITERATION   4:   6.6817e-04 (   0.4 sec   1/ 12 done)
     CP-SCF ITERATION   5:   1.5518e-04 (   0.3 sec   5/ 12 done)
     CP-SCF ITERATION   6:   3.4814e-05 (   0.3 sec  12/ 12 done)
                    *** THE CP-SCF HAS CONVERGED ***

                                                 ... done   (      2.9 sec)
Forming perturbed density Hessian contributions  ... done   (      0.0 sec)
2nd integral derivative contribs (SHARK-RI)      ... done   (      0.8 sec)
Exchange-correlation Hessian                     ... done   (      0.3 sec)
Dispersion correction in the Hessian             ... done   (      0.1 sec)
Dipole derivatives                               ... (center of mass:  0.000014,  0.000000 -0.199519)done   (      0.2 sec)

Total SCF Hessian time: 0 days 0 hours 0 min 7 sec 

Writing the Hessian file to the disk             ... done


Maximum memory used throughout the entire SCFHESS-calculation: 109.7 MB

-----------------------
VIBRATIONAL FREQUENCIES
-----------------------

Scaling factor for frequencies =  1.000000000  (already applied!)

   0:         0.00 cm**-1
   1:         0.00 cm**-1
   2:         0.00 cm**-1
   3:         0.00 cm**-1
   4:         0.00 cm**-1
   5:         0.00 cm**-1
   6:      1367.23 cm**-1
   7:      1374.42 cm**-1
   8:      1375.67 cm**-1
   9:      3035.83 cm**-1
  10:      3042.98 cm**-1
  11:      3043.14 cm**-1


------------
NORMAL MODES
------------

These modes are the Cartesian displacements weighted by the diagonal matrix
M(i,i)=1/sqrt(m[i]) where m[i] is the mass of the displaced atom
Thus, these vectors are normalized but *not* orthogonal

                  0          1          2          3          4          5    
      0       0.000000   0.000000   0.000000   0.000000   0.000000   0.000000
      1       0.000000   0.000000   0.000000   0.000000   0.000000   0.000000
      2       0.000000   0.000000   0.000000   0.000000   0.000000   0.000000
      3       0.000000   0.000000   0.000000   0.000000   0.000000   0.000000
      4       0.000000   0.000000   0.000000   0.000000   0.000000   0.000000
      5       0.000000   0.000000   0.000000   0.000000   0.000000   0.000000
      6       0.000000   0.000000   0.000000   0.000000   0.000000   0.000000
      7       0.000000   0.000000   0.000000   0.000000   0.000000   0.000000
      8       0.000000   0.000000   0.000000   0.000000   0.000000   0.000000
      9       0.000000   0.000000   0.000000   0.000000   0.000000   0.000000
     10       0.000000   0.000000   0.000000   0.000000   0.000000   0.000000
     11       0.000000   0.000000   0.000000   0.000000   0.000000   0.000000
                  6          7          8          9         10         11    
      0       0.014840  -0.000002   0.066812  -0.001739   0.082364  -0.000014
      1       0.000001   0.068172   0.000002   0.000001   0.000014   0.082351
      2      -0.123063   0.000001   0.024752   0.058769   0.001248  -0.000001
      3       0.311322  -0.000009   0.125281   0.541797  -0.699312   0.000116
      4      -0.000014  -0.724615  -0.000023   0.000001   0.000010   0.056933
      5       0.559349  -0.000016   0.219271  -0.241694   0.386550  -0.000065
      6      -0.244083  -0.393009  -0.460711  -0.260536  -0.140999   0.332602
      7       0.148903  -0.043836  -0.432702   0.449258   0.342251  -0.519164
      8       0.453521   0.280624  -0.257094  -0.229287  -0.200649   0.339033
      9      -0.244068   0.393046  -0.460686  -0.260543  -0.141114  -0.332547
     10      -0.148904  -0.043858   0.432699  -0.449268  -0.342431  -0.519036
     11       0.453510  -0.280623  -0.257112  -0.229294  -0.200767  -0.338958


-----------
IR SPECTRUM
-----------

 Mode   freq       eps      Int      T**2         TX        TY        TZ
       cm**-1   L/(mol*cm) km/mol    a.u.
----------------------------------------------------------------------------
  6:   1367.23   0.001261    6.37  0.000288  (-0.003525 -0.000000  0.016595)
  7:   1374.42   0.001155    5.84  0.000262  ( 0.000001 -0.016192 -0.000000)
  8:   1375.67   0.001186    5.99  0.000269  (-0.016026 -0.000001 -0.003501)
  9:   3035.83   0.000019    0.09  0.000002  (-0.000701  0.000000  0.001193)
 10:   3042.98   0.008539   43.15  0.000876  ( 0.029593  0.000005  0.000056)
 11:   3043.14   0.008710   44.02  0.000893  (-0.000005  0.029886 -0.000000)

* The epsilon (eps) is given for a Dirac delta lineshape.
** The dipole moment derivative (T) already includes vibrational overlap.

The first frequency considered to be a vibration is 6
The total number of vibrations considered is 6


--------------------------
THERMOCHEMISTRY AT 298.15K
--------------------------

Temperature         ... 298.15 K
Pressure            ... 1.00 atm
Total Mass          ... 15.03 AMU

Throughout the following assumptions are being made:
  (1) The electronic state is orbitally nondegenerate
      but the spin degeneracy is treated
  (2) There are no thermally accessible electronically excited states
  (3) Hindered rotations indicated by low frequency modes are not
      treated as such but are treated as vibrations and this may
      cause some error
  (4) All equations used are the standard statistical mechanics
      equations for an ideal gas
  (5) All vibrations are strictly harmonic

freq.    1367.23  E(vib)   ...       0.01 
freq.    1374.42  E(vib)   ...       0.01 
freq.    1375.67  E(vib)   ...       0.01 
freq.    3035.83  E(vib)   ...       0.00 
freq.    3042.98  E(vib)   ...       0.00 
freq.    3043.14  E(vib)   ...       0.00 

------------
INNER ENERGY
------------

The inner energy is: U= E(el) + E(ZPE) + E(vib) + E(rot) + E(trans)
    E(el)   - is the total energy from the electronic structure calculation
              = E(kin-el) + E(nuc-el) + E(el-el) + E(nuc-nuc)
    E(ZPE)  - the the zero temperature vibrational energy from the frequency calculation
    E(vib)  - the the finite temperature correction to E(ZPE) due to population
              of excited vibrational states
    E(rot)  - is the rotational thermal energy
    E(trans)- is the translational thermal energy

Summary of contributions to the inner energy U:
Electronic energy                ...    -39.79760152 Eh
Zero point energy                ...      0.03016127 Eh      18.93 kcal/mol
Thermal vibrational correction   ...      0.00002500 Eh       0.02 kcal/mol
Thermal rotational correction    ...      0.00141627 Eh       0.89 kcal/mol
Thermal translational correction ...      0.00141627 Eh       0.89 kcal/mol
-----------------------------------------------------------------------
Total thermal energy                    -39.76458271 Eh


Summary of corrections to the electronic energy:
(perhaps to be used in another calculation)
Total thermal correction                  0.00285754 Eh       1.79 kcal/mol
Non-thermal (ZPE) correction              0.03016127 Eh      18.93 kcal/mol
-----------------------------------------------------------------------
Total correction                          0.03301881 Eh      20.72 kcal/mol


--------
ENTHALPY
--------

The enthalpy is H = U + kB*T
                kB is Boltzmann's constant
Total free energy                 ...    -39.76458271 Eh 
Thermal Enthalpy correction       ...      0.00094421 Eh       0.59 kcal/mol
-----------------------------------------------------------------------
Total Enthalpy                    ...    -39.76363850 Eh


Note: Rotational entropy computed according to Herzberg 
Infrared and Raman Spectra, Chapter V,1, Van Nostrand Reinhold, 1945 
Point Group:  C3v, Symmetry Number:   3  
Rotational constants in cm-1:     7.943597     7.943404     6.243843 

Vibrational entropy computed according to the QRRHO of S. Grimme
Chem.Eur.J. 2012 18 9955


-------
ENTROPY
-------

The entropy contributions are T*S = T*(S(el)+S(vib)+S(rot)+S(trans))
     S(el)   - electronic entropy
     S(vib)  - vibrational entropy
     S(rot)  - rotational entropy
     S(trans)- translational entropy
The entropies will be listed as multiplied by the temperature to get
units of energy

Electronic entropy                ...      0.00065446 Eh      0.41 kcal/mol
Vibrational entropy               ...      0.00002878 Eh      0.02 kcal/mol
Rotational entropy                ...      0.00565217 Eh      3.55 kcal/mol
Translational entropy             ...      0.01618771 Eh     10.16 kcal/mol
-----------------------------------------------------------------------
Final entropy term                ...      0.02252310 Eh     14.13 kcal/mol

In case the symmetry of your molecule has not been determined correctly
or in case you have a reason to use a different symmetry number we print 
out the resulting rotational entropy values for sn=1,12 :
 --------------------------------------------------------
|  sn= 1 | S(rot)=       0.00668945 Eh      4.20 kcal/mol|
|  sn= 2 | S(rot)=       0.00603500 Eh      3.79 kcal/mol|
|  sn= 3 | S(rot)=       0.00565217 Eh      3.55 kcal/mol|
|  sn= 4 | S(rot)=       0.00538054 Eh      3.38 kcal/mol|
|  sn= 5 | S(rot)=       0.00516985 Eh      3.24 kcal/mol|
|  sn= 6 | S(rot)=       0.00499771 Eh      3.14 kcal/mol|
|  sn= 7 | S(rot)=       0.00485216 Eh      3.04 kcal/mol|
|  sn= 8 | S(rot)=       0.00472608 Eh      2.97 kcal/mol|
|  sn= 9 | S(rot)=       0.00461488 Eh      2.90 kcal/mol|
|  sn=10 | S(rot)=       0.00451540 Eh      2.83 kcal/mol|
|  sn=11 | S(rot)=       0.00442541 Eh      2.78 kcal/mol|
|  sn=12 | S(rot)=       0.00434325 Eh      2.73 kcal/mol|
 --------------------------------------------------------


-------------------
GIBBS FREE ENERGY
-------------------

The Gibbs free energy is G = H - T*S

Total enthalpy                    ...    -39.76363850 Eh 
Total entropy correction          ...     -0.02252310 Eh    -14.13 kcal/mol
-----------------------------------------------------------------------
Final Gibbs free energy         ...    -39.78616161 Eh

For completeness - the Gibbs free energy minus the electronic energy
G-E(el)                           ...      0.01143992 Eh      7.18 kcal/mol


Timings for individual modules:

Sum of individual times         ...       92.960 sec (=   1.549 min)
GTO integral calculation        ...       12.080 sec (=   0.201 min)  13.0 %
SCF iterations                  ...       61.026 sec (=   1.017 min)  65.6 %
SCF Gradient evaluation         ...        9.678 sec (=   0.161 min)  10.4 %
Geometry relaxation             ...        0.221 sec (=   0.004 min)   0.2 %
Analytical frequency calculation...        9.955 sec (=   0.166 min)  10.7 %
                             ****ORCA TERMINATED NORMALLY****
TOTAL RUN TIME: 0 days 0 hours 1 minutes 47 seconds 284 msec

slurmID:    32260134
totalRuntime[s]:    107.322050963
