
                                 *****************
                                 * O   R   C   A *
                                 *****************

                                            #,                                       
                                            ###                                      
                                            ####                                     
                                            #####                                    
                                            ######                                   
                                           ########,                                 
                                     ,,################,,,,,                         
                               ,,#################################,,                 
                          ,,##########################################,,             
                       ,#########################################, ''#####,          
                    ,#############################################,,   '####,        
                  ,##################################################,,,,####,       
                ,###########''''           ''''###############################       
              ,#####''   ,,,,##########,,,,          '''####'''          '####       
            ,##' ,,,,###########################,,,                        '##       
           ' ,,###''''                  '''############,,,                           
         ,,##''                                '''############,,,,        ,,,,,,###''
      ,#''                                            '''#######################'''  
     '                                                          ''''####''''         
             ,#######,   #######,   ,#######,      ##                                
            ,#'     '#,  ##    ##  ,#'     '#,    #''#        ######   ,####,        
            ##       ##  ##   ,#'  ##            #'  '#       #        #'  '#        
            ##       ##  #######   ##           ,######,      #####,   #    #        
            '#,     ,#'  ##    ##  '#,     ,#' ,#      #,         ##   #,  ,#        
             '#######'   ##     ##  '#######'  #'      '#     #####' # '####'        



                  #######################################################
                  #                        -***-                        #
                  #          Department of theory and spectroscopy      #
                  #    Directorship and core code : Frank Neese         #
                  #        Max Planck Institute fuer Kohlenforschung    #
                  #                Kaiser Wilhelm Platz 1               #
                  #                 D-45470 Muelheim/Ruhr               #
                  #                      Germany                        #
                  #                                                     #
                  #                  All rights reserved                #
                  #                        -***-                        #
                  #######################################################


                         Program Version 5.0.4 -  RELEASE  -


 With contributions from (in alphabetic order):
   Daniel Aravena         : Magnetic Suceptibility
   Michael Atanasov       : Ab Initio Ligand Field Theory (pilot matlab implementation)
   Alexander A. Auer      : GIAO ZORA, VPT2 properties, NMR spectrum
   Ute Becker             : Parallelization
   Giovanni Bistoni       : ED, misc. LED, open-shell LED, HFLD
   Martin Brehm           : Molecular dynamics
   Dmytro Bykov           : SCF Hessian
   Vijay G. Chilkuri      : MRCI spin determinant printing, contributions to CSF-ICE
   Dipayan Datta          : RHF DLPNO-CCSD density
   Achintya Kumar Dutta   : EOM-CC, STEOM-CC
   Dmitry Ganyushin       : Spin-Orbit,Spin-Spin,Magnetic field MRCI
   Miquel Garcia          : C-PCM and meta-GGA Hessian, CC/C-PCM, Gaussian charge scheme
   Yang Guo               : DLPNO-NEVPT2, F12-NEVPT2, CIM, IAO-localization
   Andreas Hansen         : Spin unrestricted coupled pair/coupled cluster methods
   Benjamin Helmich-Paris : MC-RPA, TRAH-SCF, COSX integrals
   Lee Huntington         : MR-EOM, pCC
   Robert Izsak           : Overlap fitted RIJCOSX, COSX-SCS-MP3, EOM
   Marcus Kettner         : VPT2
   Christian Kollmar      : KDIIS, OOCD, Brueckner-CCSD(T), CCSD density, CASPT2, CASPT2-K
   Simone Kossmann        : Meta GGA functionals, TD-DFT gradient, OOMP2, MP2 Hessian
   Martin Krupicka        : Initial AUTO-CI
   Lucas Lang             : DCDCAS
   Marvin Lechner         : AUTO-CI (C++ implementation), FIC-MRCC
   Dagmar Lenk            : GEPOL surface, SMD
   Dimitrios Liakos       : Extrapolation schemes; Compound Job, initial MDCI parallelization
   Dimitrios Manganas     : Further ROCIS development; embedding schemes
   Dimitrios Pantazis     : SARC Basis sets
   Anastasios Papadopoulos: AUTO-CI, single reference methods and gradients
   Taras Petrenko         : DFT Hessian,TD-DFT gradient, ASA, ECA, R-Raman, ABS, FL, XAS/XES, NRVS
   Peter Pinski           : DLPNO-MP2, DLPNO-MP2 Gradient
   Christoph Reimann      : Effective Core Potentials
   Marius Retegan         : Local ZFS, SOC
   Christoph Riplinger    : Optimizer, TS searches, QM/MM, DLPNO-CCSD(T), (RO)-DLPNO pert. Triples
   Tobias Risthaus        : Range-separated hybrids, TD-DFT gradient, RPA, STAB
   Michael Roemelt        : Original ROCIS implementation
   Masaaki Saitow         : Open-shell DLPNO-CCSD energy and density
   Barbara Sandhoefer     : DKH picture change effects
   Avijit Sen             : IP-ROCIS
   Kantharuban Sivalingam : CASSCF convergence, NEVPT2, FIC-MRCI
   Bernardo de Souza      : ESD, SOC TD-DFT
   Georgi Stoychev        : AutoAux, RI-MP2 NMR, DLPNO-MP2 response
   Willem Van den Heuvel  : Paramagnetic NMR
   Boris Wezisla          : Elementary symmetry handling
   Frank Wennmohs         : Technical directorship


 We gratefully acknowledge several colleagues who have allowed us to
 interface, adapt or use parts of their codes:
   Stefan Grimme, W. Hujo, H. Kruse, P. Pracht,  : VdW corrections, initial TS optimization,
                  C. Bannwarth, S. Ehlert          DFT functionals, gCP, sTDA/sTD-DF
   Ed Valeev, F. Pavosevic, A. Kumar             : LibInt (2-el integral package), F12 methods
   Garnet Chan, S. Sharma, J. Yang, R. Olivares  : DMRG
   Ulf Ekstrom                                   : XCFun DFT Library
   Mihaly Kallay                                 : mrcc  (arbitrary order and MRCC methods)
   Jiri Pittner, Ondrej Demel                    : Mk-CCSD
   Frank Weinhold                                : gennbo (NPA and NBO analysis)
   Christopher J. Cramer and Donald G. Truhlar   : smd solvation model
   Lars Goerigk                                  : TD-DFT with DH, B97 family of functionals
   V. Asgeirsson, H. Jonsson                     : NEB implementation
   FAccTs GmbH                                   : IRC, NEB, NEB-TS, DLPNO-Multilevel, CI-OPT
                                                   MM, QMMM, 2- and 3-layer-ONIOM, Crystal-QMMM,
                                                   LR-CPCM, SF, NACMEs, symmetry and pop. for TD-DFT,
                                                   nearIR, NL-DFT gradient (VV10), updates on ESD,
                                                   ML-optimized integration grids
   S Lehtola, MJT Oliveira, MAL Marques          : LibXC Library
   Liviu Ungur et al                             : ANISO software


 Your calculation uses the libint2 library for the computation of 2-el integrals
 For citations please refer to: http://libint.valeyev.net

 Your ORCA version has been built with support for libXC version: 5.1.0
 For citations please refer to: https://tddft.org/programs/libxc/

 This ORCA versions uses:
   CBLAS   interface :  Fast vector & matrix operations
   LAPACKE interface :  Fast linear algebra routines
   SCALAPACK package :  Parallel linear algebra routines
   Shared memory     :  Shared parallel matrices
   BLAS/LAPACK       :  OpenBLAS 0.3.15  USE64BITINT DYNAMIC_ARCH NO_AFFINITY SkylakeX SINGLE_THREADED
        Core in use  :  SkylakeX
   Copyright (c) 2011-2014, The OpenBLAS Project


Your calculation utilizes the atom-pairwise dispersion correction
with the zero-damping scheme (D30)
Cite in your paper:
S.Grimme, J.Antony, S.Ehrlich and H.Krieg, J.Chem.Phys., 132, (2010), 154104 
   

XCFun DFT library Copyright 2009-2010 Ulf Ekstrom and contributors.
See http://admol.org/xcfun for more information.
This is free software; see the source code for copying conditions.
There is ABSOLUTELY NO WARRANTY; not even for MERCHANTABILITY or FITNESS FOR A PARTICULAR PURPOSE.
For details see the documentation.
Scientific users of this library should cite U. Ekstrom, L. Visscher, R. Bast, A. J. Thorvaldsen and K. Ruud;
J.Chem.Theor.Comp. 2010, DOI: 10.1021/ct100117s
XCFun Version 0.99 

================================================================================

----- Orbital basis set information -----
Your calculation utilizes the basis: def2-TZVPD
   F. Weigend and R. Ahlrichs, Phys. Chem. Chem. Phys. 7, 3297 (2005).
   D. Rappoport and F. Furche, J. Chem. Phys. 133 134105 (2010).

----- AuxJ basis set information -----
Your calculation utilizes the auxiliary basis: def2/J
   F. Weigend, Phys. Chem. Chem. Phys. 8, 1057 (2006).

================================================================================
                                        WARNINGS
                       Please study these warnings very carefully!
================================================================================


WARNING: Geometry Optimization
  ===> : Switching off AutoStart
         For restart on a previous wavefunction, please use MOREAD

INFO   : the flag for use of the SHARK integral package has been found!

================================================================================
                                       INPUT FILE
================================================================================
NAME = /beegfs/scratch/ispackman/PFAS_EPR_calcs/benchmark/JChemEd_CF3_radical/CH3_radical_105.5_degrees_IN-PROGRESS/CH3_radical_105.5_degrees.inp
|  1> ! UKS TightSCF wB97x-D3 def2-TZVPD xyzfile opt freq
|  2> 
|  3> # CH3 radical 105.5 degrees fixed
|  4> 
|  5> %maxcore 1000
|  6> %pal
|  7> nprocs 18
|  8> end
|  9> 
| 10> %geom Constraints
| 11>         { A * 0 * C }
| 12>     end
| 13> end
| 14> * xyz 0 2
| 15> C 0.00 0.00 0.00
| 16> H 0.9926754561 0.0000000000 -0.4254355871
| 17> H -0.4963377281 0.8596821627 -0.4254355871
| 18> H -0.4963377281 -0.8596821627 -0.4254355871
| 19> **                         ****END OF INPUT****
================================================================================

                       *****************************
                       * Geometry Optimization Run *
                       *****************************

Geometry optimization settings:
Update method            Update   .... BFGS
Choice of coordinates    CoordSys .... Z-matrix Internals
Initial Hessian          InHess   .... Almoef's Model

Convergence Tolerances:
Energy Change            TolE     ....  5.0000e-06 Eh
Max. Gradient            TolMAXG  ....  3.0000e-04 Eh/bohr
RMS Gradient             TolRMSG  ....  1.0000e-04 Eh/bohr
Max. Displacement        TolMAXD  ....  4.0000e-03 bohr
RMS Displacement         TolRMSD  ....  2.0000e-03 bohr
Strict Convergence                ....  False
------------------------------------------------------------------------------
                        ORCA OPTIMIZATION COORDINATE SETUP
------------------------------------------------------------------------------

The optimization will be done in new redundant internal coordinates
Making redundant internal coordinates   ...  (new redundants) done
Evaluating the initial hessian          ...  (Almloef) done
Evaluating the coordinates              ...  done
Calculating the B-matrix                .... done
Calculating the G-matrix                .... done
Diagonalizing the G-matrix              .... done
Imposing constraints:
 Iter   0:  RMS(Cart)=    0.0000000000 RMS(Int)=    0.0000000000
CONVERGED
Will constrain atom 0 coordinate 1 
Will constrain atom 0 coordinate 2 
Will constrain atom 1 coordinate 2 
The first mode is                       ....    1
The number of degrees of freedom        ....    6
Storing new coordinates                 .... done

    -----------------------------------------------------------------
                    Redundant Internal Coordinates


    -----------------------------------------------------------------
         Definition                    Initial Value    Approx d2E/dq
    -----------------------------------------------------------------
      1. B(H   1,C   0)                  1.0800         0.373575   
      2. B(H   2,C   0)                  1.0800         0.373575   
      3. B(H   3,C   0)                  1.0800         0.373575   
      4. A(H   2,C   0,H   3)          105.5000         0.294224 C 
      5. A(H   1,C   0,H   2)          105.5000         0.294224 C 
      6. A(H   1,C   0,H   3)          105.5000         0.294224 C 
      7. I(H   1,H   3,H   2,C   0)     63.8003         0.003279   
    -----------------------------------------------------------------

Number of atoms                         .... 4
Number of degrees of freedom            .... 7

         *************************************************************
         *                GEOMETRY OPTIMIZATION CYCLE   1            *
         *************************************************************
---------------------------------
CARTESIAN COORDINATES (ANGSTROEM)
---------------------------------
  C      0.000000    0.000000    0.000000
  H      0.992675    0.000000   -0.425436
  H     -0.496338    0.859682   -0.425436
  H     -0.496338   -0.859682   -0.425436

----------------------------
CARTESIAN COORDINATES (A.U.)
----------------------------
  NO LB      ZA    FRAG     MASS         X           Y           Z
   0 C     6.0000    0    12.011    0.000000    0.000000    0.000000
   1 H     1.0000    0     1.008    1.875885    0.000000   -0.803957
   2 H     1.0000    0     1.008   -0.937942    1.624564   -0.803957
   3 H     1.0000    0     1.008   -0.937942   -1.624564   -0.803957

--------------------------------
INTERNAL COORDINATES (ANGSTROEM)
--------------------------------
 C      0   0   0     0.000000000000     0.00000000     0.00000000
 H      1   0   0     1.079999999960     0.00000000     0.00000000
 H      1   2   0     1.079999999987   105.50000000     0.00000000
 H      1   2   3     1.079999999987   105.50000000   111.38913915

---------------------------
INTERNAL COORDINATES (A.U.)
---------------------------
 C      0   0   0     0.000000000000     0.00000000     0.00000000
 H      1   0   0     2.040904224560     0.00000000     0.00000000
 H      1   2   0     2.040904224610   105.50000000     0.00000000
 H      1   2   3     2.040904224610   105.50000000   111.38913915

---------------------
BASIS SET INFORMATION
---------------------
There are 2 groups of distinct atoms

 Group   1 Type C   : 12s6p3d1f contracted to 6s3p3d1f pattern {621111/411/111/1}
 Group   2 Type H   : 5s2p contracted to 3s2p pattern {311/11}

Atom   0C    basis set group =>   1
Atom   1H    basis set group =>   2
Atom   2H    basis set group =>   2
Atom   3H    basis set group =>   2
---------------------------------
AUXILIARY/J BASIS SET INFORMATION
---------------------------------
There are 2 groups of distinct atoms

 Group   1 Type C   : 12s5p4d2f1g contracted to 6s4p3d1f1g pattern {711111/2111/211/2/1}
 Group   2 Type H   : 5s2p1d contracted to 3s1p1d pattern {311/2/1}

Atom   0C    basis set group =>   1
Atom   1H    basis set group =>   2
Atom   2H    basis set group =>   2
Atom   3H    basis set group =>   2


           ************************************************************
           *        Program running with 18 parallel MPI-processes    *
           *              working on a common directory               *
           ************************************************************
------------------------------------------------------------------------------
                           ORCA GTO INTEGRAL CALCULATION
                           -- RI-GTO INTEGRALS CHOSEN --
------------------------------------------------------------------------------
------------------------------------------------------------------------------
                   ___                                                        
                  /   \      - P O W E R E D   B Y -                         
                 /     \                                                     
                 |  |  |   _    _      __       _____    __    __             
                 |  |  |  | |  | |    /  \     |  _  \  |  |  /  |          
                  \  \/   | |  | |   /    \    | | | |  |  | /  /          
                 / \  \   | |__| |  /  /\  \   | |_| |  |  |/  /          
                |  |  |   |  __  | /  /__\  \  |    /   |      \           
                |  |  |   | |  | | |   __   |  |    \   |  |\   \          
                \     /   | |  | | |  |  |  |  | |\  \  |  | \   \       
                 \___/    |_|  |_| |__|  |__|  |_| \__\ |__|  \__/        
                                                                              
                      - O R C A' S   B I G   F R I E N D -                    
                                      &                                       
                       - I N T E G R A L  F E E D E R -                       
                                                                              
 v1 FN, 2020, v2 2021                                                         
------------------------------------------------------------------------------


Reading SHARK input file /beegfs/scratch/ispackman/PFAS_EPR_calcs/benchmark/JChemEd_CF3_radical/CH3_radical_105.5_degrees_IN-PROGRESS/CH3_radical_105.5_degrees.SHARKINP.tmp ... ok
----------------------
SHARK INTEGRAL PACKAGE
----------------------

Number of atoms                             ...      4
Number of basis functions                   ...     64
Number of shells                            ...     28
Maximum angular momentum                    ...      3
Integral batch strategy                     ... SHARK/LIBINT Hybrid
RI-J (if used) integral strategy            ... SPLIT-RIJ (Revised 2003 algorithm where possible)
Printlevel                                  ...      1
Contraction scheme used                     ... SEGMENTED contraction
Coulomb Range Separation                    ... NOT USED
Exchange Range Separation                   ... Long Range
   Mu parameter                             ...  0.250000
   Scaling (regular/separated)              ...  0.195728  0.804272
Finite Nucleus Model                        ... NOT USED
Auxiliary Coulomb fitting basis             ... AVAILABLE
   # of basis functions in Aux-J            ...     82
   # of shells in Aux-J                     ...     30
   Maximum angular momentum in Aux-J        ...      4
Auxiliary J/K fitting basis                 ... NOT available
Auxiliary Correlation fitting basis         ... NOT available
Auxiliary 'external' fitting basis          ... NOT available
Integral threshold                          ...     2.500000e-11
Primitive cut-off                           ...     2.500000e-12
Primitive pair pre-selection threshold      ...     2.500000e-12

Calculating pre-screening integrals         ... done (  0.0 sec) Dimension = 28
Organizing shell pair data                  ... done (  0.0 sec)
Shell pair information
Total number of shell pairs                 ...       406
Shell pairs after pre-screening             ...       406
Total number of primitive shell pairs       ...       977
Primitive shell pairs kept                  ...       947
          la=0 lb=0:    120 shell pairs
          la=1 lb=0:    135 shell pairs
          la=1 lb=1:     45 shell pairs
          la=2 lb=0:     45 shell pairs
          la=2 lb=1:     27 shell pairs
          la=2 lb=2:      6 shell pairs
          la=3 lb=0:     15 shell pairs
          la=3 lb=1:      9 shell pairs
          la=3 lb=2:      3 shell pairs
          la=3 lb=3:      1 shell pairs

Calculating one electron integrals          ... done (  0.0 sec)
Calculating RI/J V-Matrix + Cholesky decomp.... done (  0.0 sec)
Calculating Nuclear repulsion               ... done (  0.0 sec) ENN=      9.742944882098 Eh

SHARK setup successfully completed in   0.3 seconds

Maximum memory used throughout the entire GTOINT-calculation: 14.0 MB


           ************************************************************
           *        Program running with 18 parallel MPI-processes    *
           *              working on a common directory               *
           ************************************************************
-------------------------------------------------------------------------------
                                 ORCA SCF
-------------------------------------------------------------------------------

------------
SCF SETTINGS
------------
Hamiltonian:
 Density Functional     Method          .... DFT(GTOs)
 Exchange Functional    Exchange        .... WB97X-D3
 Correlation Functional Correlation     .... WB97X-D3
 Gradients option       PostSCFGGA      .... off
 Hybrid DFT is turned on
   Fraction HF Exchange ScalHFX         ....  0.195728
   Scaling of DF-GGA-X  ScalDFX         ....  0.000000
   Scaling of DF-GGA-C  ScalDFC         ....  1.000000
   Scaling of DF-LDA-C  ScalLDAC        ....  1.000000
   Perturbative correction              ....  0.000000
   Density functional embedding theory  .... OFF
 Long-range corrected/Screened/Range-Separated Hybrid DFT is turned on
   Amount of maximum screened exact exchange              ....  0.804272
   Range separation parameter mu (erf(mu*r12)/r12)        ....  0.250000
 RI-approximation to the Coulomb term is turned on
   Number of AuxJ basis functions       .... 82
   RIJ-COSX (HFX calculated with COS-X)).... on


General Settings:
 Integral files         IntName         .... /beegfs/scratch/ispackman/PFAS_EPR_calcs/benchmark/JChemEd_CF3_radical/CH3_radical_105.5_degrees_IN-PROGRESS/CH3_radical_105.5_degrees
 Hartree-Fock type      HFTyp           .... UHF
 Total Charge           Charge          ....    0
 Multiplicity           Mult            ....    2
 Number of Electrons    NEL             ....    9
 Basis Dimension        Dim             ....   64
 Nuclear Repulsion      ENuc            ....      9.7429448821 Eh

Convergence Acceleration:
 DIIS                   CNVDIIS         .... on
   Start iteration      DIISMaxIt       ....    12
   Startup error        DIISStart       ....  0.200000
   # of expansion vecs  DIISMaxEq       ....     5
   Bias factor          DIISBfac        ....   1.050
   Max. coefficient     DIISMaxC        ....  10.000
 Trust-Rad. Augm. Hess. CNVTRAH         .... auto
   Auto Start mean grad. ratio tolernc. ....  1.125000
   Auto Start start iteration           ....    20
   Auto Start num. interpolation iter.  ....    10
   Max. Number of Micro iterations      ....    16
   Max. Number of Macro iterations      .... Maxiter - #DIIS iter
   Number of Davidson start vectors     ....     2
   Converg. threshold I  (grad. norm)   ....   1.000e-05
   Converg. threshold II (energy diff.) ....   1.000e-08
   Grad. Scal. Fac. for Micro threshold ....   0.100
   Minimum threshold for Micro iter.    ....   0.010
   NR start threshold (gradient norm)   ....   0.001
   Initial trust radius                 ....   0.400
   Minimum AH scaling param. (alpha)    ....   1.000
   Maximum AH scaling param. (alpha)    .... 1000.000
   Orbital update algorithm             .... Taylor
   White noise on init. David. guess    .... on
   Maximum white noise                  ....   0.010
   Quad. conv. algorithm                .... NR
 SOSCF                  CNVSOSCF        .... off
 Level Shifting         CNVShift        .... on
   Level shift para.    LevelShift      ....    0.2500
   Turn off err/grad.   ShiftErr        ....    0.0010
 Zerner damping         CNVZerner       .... off
 Static damping         CNVDamp         .... on
   Fraction old density DampFac         ....    0.7000
   Max. Damping (<1)    DampMax         ....    0.9800
   Min. Damping (>=0)   DampMin         ....    0.0000
   Turn off err/grad.   DampErr         ....    0.1000
 Fernandez-Rico         CNVRico         .... off

SCF Procedure:
 Maximum # iterations   MaxIter         ....   125
 SCF integral mode      SCFMode         .... Direct
   Integral package                     .... SHARK and LIBINT hybrid scheme
 Reset frequency        DirectResetFreq ....    20
 Integral Threshold     Thresh          ....  2.500e-11 Eh
 Primitive CutOff       TCut            ....  2.500e-12 Eh

Convergence Tolerance:
 Convergence Check Mode ConvCheckMode   .... Total+1el-Energy
 Convergence forced     ConvForced      .... 0
 Energy Change          TolE            ....  1.000e-08 Eh
 1-El. energy change                    ....  1.000e-05 Eh
 DIIS Error             TolErr          ....  5.000e-07


Diagonalization of the overlap matrix:
Smallest eigenvalue                        ... 4.670e-05
Time for diagonalization                   ...    0.002 sec
Threshold for overlap eigenvalues          ... 1.000e-08
Number of eigenvalues below threshold      ... 0
Time for construction of square roots      ...    0.015 sec
Total time needed                          ...    0.018 sec

Time for model grid setup =    0.035 sec

------------------------------
INITIAL GUESS: MODEL POTENTIAL
------------------------------
Loading Hartree-Fock densities                     ... done
Calculating cut-offs                               ... done
Initializing the effective Hamiltonian             ... done
Setting up the integral package (SHARK)            ... done
Starting the Coulomb interaction                   ... done (   0.1 sec)
Reading the grid                                   ... done
Mapping shells                                     ... done
Starting the XC term evaluation                    ... done (   0.0 sec)
  promolecular density results
     # of electrons  =      8.997938471
     EX              =     -5.935139370
     EC              =     -0.259836684
     EX+EC           =     -6.194976054
Transforming the Hamiltonian                       ... done (   0.0 sec)
Diagonalizing the Hamiltonian                      ... done (   0.0 sec)
Back transforming the eigenvectors                 ... done (   0.0 sec)
Now organizing SCF variables                       ... done
                      ------------------
                      INITIAL GUESS DONE (   0.2 sec)
                      ------------------
-------------------
DFT GRID GENERATION
-------------------

General Integration Accuracy     IntAcc      ... 4.388
Radial Grid Type                 RadialGrid  ... OptM3 with GC (2021)
Angular Grid (max. ang.)         AngularGrid ... 4 (Lebedev-302)
Angular grid pruning method      GridPruning ... 4 (adaptive)
Weight generation scheme         WeightScheme... Becke
Basis function cutoff            BFCut       ... 1.0000e-11
Integration weight cutoff        WCut        ... 1.0000e-14
Angular grids for H and He will be reduced by one unit
Partially contracted basis set               ... off
Rotationally invariant grid construction     ... off

Total number of grid points                  ...    17048
Total number of batches                      ...      269
Average number of points per batch           ...       63
Average number of grid points per atom       ...     4262
Time for grid setup =    0.096 sec

--------------------
COSX GRID GENERATION
--------------------

GRIDX 1
-------
General Integration Accuracy     IntAcc      ... 3.816
Radial Grid Type                 RadialGrid  ... OptM3 with GC (2021)
Angular Grid (max. ang.)         AngularGrid ... 1 (Lebedev-50)
Angular grid pruning method      GridPruning ... 4 (adaptive)
Weight generation scheme         WeightScheme... Becke
Basis function cutoff            BFCut       ... 1.0000e-11
Integration weight cutoff        WCut        ... 1.0000e-14
Angular grids for H and He will be reduced by one unit
Partially contracted basis set               ... on
Rotationally invariant grid construction     ... off

Total number of grid points                  ...     2149
Total number of batches                      ...       36
Average number of points per batch           ...       59
Average number of grid points per atom       ...      537
UseSFitting                                  ... on

GRIDX 2
-------
General Integration Accuracy     IntAcc      ... 4.020
Radial Grid Type                 RadialGrid  ... OptM3 with GC (2021)
Angular Grid (max. ang.)         AngularGrid ... 2 (Lebedev-110)
Angular grid pruning method      GridPruning ... 4 (adaptive)
Weight generation scheme         WeightScheme... Becke
Basis function cutoff            BFCut       ... 1.0000e-11
Integration weight cutoff        WCut        ... 1.0000e-14
Angular grids for H and He will be reduced by one unit
Partially contracted basis set               ... on
Rotationally invariant grid construction     ... off

Total number of grid points                  ...     5036
Total number of batches                      ...       82
Average number of points per batch           ...       61
Average number of grid points per atom       ...     1259
UseSFitting                                  ... on

GRIDX 3
-------
General Integration Accuracy     IntAcc      ... 4.338
Radial Grid Type                 RadialGrid  ... OptM3 with GC (2021)
Angular Grid (max. ang.)         AngularGrid ... 3 (Lebedev-194)
Angular grid pruning method      GridPruning ... 4 (adaptive)
Weight generation scheme         WeightScheme... Becke
Basis function cutoff            BFCut       ... 1.0000e-11
Integration weight cutoff        WCut        ... 1.0000e-14
Angular grids for H and He will be reduced by one unit
Partially contracted basis set               ... on
Rotationally invariant grid construction     ... off

Total number of grid points                  ...    11706
Total number of batches                      ...      186
Average number of points per batch           ...       62
Average number of grid points per atom       ...     2926
UseSFitting                                  ... on

Time for X-Grid setup             =    0.257 sec

--------------
SCF ITERATIONS
--------------
ITER       Energy         Delta-E        Max-DP      RMS-DP      [F,P]     Damp
               ***  Starting incremental Fock matrix formation  ***
  0    -39.7844925275   0.000000000000 0.05152543  0.00107714  0.0768421 0.7000
  1    -39.7981802281  -0.013687700626 0.04932034  0.00095800  0.0492494 0.7000
                               ***Turning on DIIS***
  2    -39.8059074091  -0.007727181036 0.10928536  0.00213974  0.0283856 0.0000
  3    -39.8192513414  -0.013343932318 0.03120381  0.00062486  0.0193437 0.0000
  4    -39.8208026361  -0.001551294620 0.01157865  0.00020311  0.0034096 0.0000
  5    -39.8208691583  -0.000066522276 0.00998174  0.00016860  0.0016083 0.0000
  6    -39.8208902754  -0.000021117069 0.01030913  0.00016926  0.0006245 0.0000
               *** Restarting incremental Fock matrix formation ***
                                   *** Resetting DIIS ***
  7    -39.8209027452  -0.000012469833 0.00120635  0.00001955  0.0000811 0.0000
  8    -39.8209028786  -0.000000133391 0.00063848  0.00001049  0.0000346 0.0000
  9    -39.8209029167  -0.000000038035 0.00001950  0.00000075  0.0000138 0.0000
 10    -39.8209029186  -0.000000001950 0.00000659  0.00000023  0.0000054 0.0000
                 **** Energy Check signals convergence ****

               *****************************************************
               *                     SUCCESS                       *
               *           SCF CONVERGED AFTER  11 CYCLES          *
               *****************************************************

Old exchange energy                            =     -2.173835832 Eh
New exchange energy                            =     -2.173839675 Eh
Exchange energy change after final integration =     -0.000003843 Eh
Total energy after final integration           =    -39.820906761 Eh
Final COS-X integration done in                =     0.131 sec

----------------
TOTAL SCF ENERGY
----------------

Total Energy       :          -39.82090676 Eh           -1083.58196 eV

Components:
Nuclear Repulsion  :            9.74294488 Eh             265.11901 eV
Electronic Energy  :          -49.56385164 Eh           -1348.70097 eV
One Electron Energy:          -71.75180555 Eh           -1952.46589 eV
Two Electron Energy:           22.18795391 Eh             603.76492 eV
Max COSX asymmetry :            0.00000019 Eh               0.00001 eV

Virial components:
Potential Energy   :          -79.48082899 Eh           -2162.78331 eV
Kinetic Energy     :           39.65992222 Eh            1079.20135 eV
Virial Ratio       :            2.00405912


DFT components:
N(Alpha)           :        4.999998565235 electrons
N(Beta)            :        4.000000701628 electrons
N(Total)           :        8.999999266863 electrons
E(XC)              :       -4.316306328398 Eh       
DFET-embed. en.    :        0.000000000000 Eh       

---------------
SCF CONVERGENCE
---------------

  Last Energy change         ...   -2.9118e-11  Tolerance :   1.0000e-08
  Last MAX-Density change    ...    0.0000e+00  Tolerance :   1.0000e-07
  Last RMS-Density change    ...    0.0000e+00  Tolerance :   5.0000e-09
  Last DIIS Error            ...    1.2841e-06  Tolerance :   5.0000e-07

             **** THE GBW FILE WAS UPDATED (/beegfs/scratch/ispackman/PFAS_EPR_calcs/benchmark/JChemEd_CF3_radical/CH3_radical_105.5_degrees_IN-PROGRESS/CH3_radical_105.5_degrees.gbw) ****
             **** DENSITY /beegfs/scratch/ispackman/PFAS_EPR_calcs/benchmark/JChemEd_CF3_radical/CH3_radical_105.5_degrees_IN-PROGRESS/CH3_radical_105.5_degrees.scfp WAS UPDATED ****
             **** ENERGY FILE WAS UPDATED (/beegfs/scratch/ispackman/PFAS_EPR_calcs/benchmark/JChemEd_CF3_radical/CH3_radical_105.5_degrees_IN-PROGRESS/CH3_radical_105.5_degrees.en.tmp) ****
----------------------
UHF SPIN CONTAMINATION
----------------------

Warning: in a DFT calculation there is little theoretical justification to 
         calculate <S**2> as in Hartree-Fock theory. We will do it anyways
         but you should keep in mind that the values have only limited relevance

Expectation value of <S**2>     :     0.752940
Ideal value S*(S+1) for S=0.5   :     0.750000
Deviation                       :     0.002940

             **** THE GBW FILE WAS UPDATED (/beegfs/scratch/ispackman/PFAS_EPR_calcs/benchmark/JChemEd_CF3_radical/CH3_radical_105.5_degrees_IN-PROGRESS/CH3_radical_105.5_degrees.gbw) ****
             **** DENSITY /beegfs/scratch/ispackman/PFAS_EPR_calcs/benchmark/JChemEd_CF3_radical/CH3_radical_105.5_degrees_IN-PROGRESS/CH3_radical_105.5_degrees.scfp WAS UPDATED ****
----------------
ORBITAL ENERGIES
----------------
                 SPIN UP ORBITALS
  NO   OCC          E(Eh)            E(eV) 
   0   1.0000     -10.292233      -280.0659 
   1   1.0000      -0.814396       -22.1608 
   2   1.0000      -0.502736       -13.6801 
   3   1.0000      -0.502706       -13.6793 
   4   1.0000      -0.370763       -10.0890 
   5   0.0000       0.075848         2.0639 
   6   0.0000       0.161572         4.3966 
   7   0.0000       0.161581         4.3968 
   8   0.0000       0.187431         5.1003 
   9   0.0000       0.195286         5.3140 
  10   0.0000       0.195288         5.3141 
  11   0.0000       0.227344         6.1863 
  12   0.0000       0.253645         6.9020 
  13   0.0000       0.253648         6.9021 
  14   0.0000       0.314394         8.5551 
  15   0.0000       0.355918         9.6850 
  16   0.0000       0.355930         9.6853 
  17   0.0000       0.363861         9.9012 
  18   0.0000       0.376363        10.2414 
  19   0.0000       0.384601        10.4655 
  20   0.0000       0.384606        10.4656 
  21   0.0000       0.405507        11.0344 
  22   0.0000       0.405514        11.0346 
  23   0.0000       0.531461        14.4618 
  24   0.0000       0.556715        15.1490 
  25   0.0000       0.556723        15.1492 
  26   0.0000       0.587813        15.9952 
  27   0.0000       0.782927        21.3045 
  28   0.0000       0.793707        21.5979 
  29   0.0000       0.793712        21.5980 
  30   0.0000       0.872987        23.7552 
  31   0.0000       0.872993        23.7553 
  32   0.0000       0.991157        26.9708 
  33   0.0000       1.151322        31.3291 
  34   0.0000       1.151331        31.3293 
  35   0.0000       1.638192        44.5775 
  36   0.0000       1.733030        47.1581 
  37   0.0000       1.747061        47.5399 
  38   0.0000       1.747123        47.5416 
  39   0.0000       1.776504        48.3411 
  40   0.0000       1.931553        52.5602 
  41   0.0000       1.931595        52.5614 
  42   0.0000       2.200988        59.8919 
  43   0.0000       2.278367        61.9975 
  44   0.0000       2.278452        61.9998 
  45   0.0000       2.298169        62.5364 
  46   0.0000       2.599919        70.7474 
  47   0.0000       2.599938        70.7479 
  48   0.0000       2.722679        74.0879 
  49   0.0000       2.722749        74.0898 
  50   0.0000       2.862042        77.8801 
  51   0.0000       3.010391        81.9169 
  52   0.0000       3.158646        85.9511 
  53   0.0000       3.158710        85.9529 
  54   0.0000       3.284930        89.3875 
  55   0.0000       3.284963        89.3884 
  56   0.0000       3.390721        92.2662 
  57   0.0000       3.454139        93.9919 
  58   0.0000       3.682933       100.2177 
  59   0.0000       3.682981       100.2190 
  60   0.0000       4.432832       120.6235 
  61   0.0000       4.433058       120.6296 
  62   0.0000       4.487479       122.1105 
  63   0.0000      22.187279       603.7465 

                 SPIN DOWN ORBITALS
  NO   OCC          E(Eh)            E(eV) 
   0   1.0000     -10.281075      -279.7623 
   1   1.0000      -0.776452       -21.1283 
   2   1.0000      -0.487979       -13.2786 
   3   1.0000      -0.487958       -13.2780 
   4   0.0000      -0.021191        -0.5766 
   5   0.0000       0.084771         2.3067 
   6   0.0000       0.166426         4.5287 
   7   0.0000       0.166426         4.5287 
   8   0.0000       0.200343         5.4516 
   9   0.0000       0.200350         5.4518 
  10   0.0000       0.224652         6.1131 
  11   0.0000       0.242994         6.6122 
  12   0.0000       0.258297         7.0286 
  13   0.0000       0.258298         7.0286 
  14   0.0000       0.325296         8.8518 
  15   0.0000       0.369296        10.0491 
  16   0.0000       0.369299        10.0491 
  17   0.0000       0.373544        10.1646 
  18   0.0000       0.376309        10.2399 
  19   0.0000       0.392061        10.6685 
  20   0.0000       0.392061        10.6685 
  21   0.0000       0.414884        11.2896 
  22   0.0000       0.414886        11.2896 
  23   0.0000       0.559982        15.2379 
  24   0.0000       0.559991        15.2381 
  25   0.0000       0.564661        15.3652 
  26   0.0000       0.598677        16.2908 
  27   0.0000       0.791536        21.5388 
  28   0.0000       0.805009        21.9054 
  29   0.0000       0.805010        21.9054 
  30   0.0000       0.896019        24.3819 
  31   0.0000       0.896028        24.3822 
  32   0.0000       1.011374        27.5209 
  33   0.0000       1.160570        31.5807 
  34   0.0000       1.160577        31.5809 
  35   0.0000       1.705112        46.3985 
  36   0.0000       1.734099        47.1872 
  37   0.0000       1.756023        47.7838 
  38   0.0000       1.756102        47.7860 
  39   0.0000       1.791915        48.7605 
  40   0.0000       1.947760        53.0012 
  41   0.0000       1.947812        53.0027 
  42   0.0000       2.205646        60.0187 
  43   0.0000       2.289928        62.3121 
  44   0.0000       2.289965        62.3131 
  45   0.0000       2.312263        62.9199 
  46   0.0000       2.604990        70.8854 
  47   0.0000       2.605005        70.8858 
  48   0.0000       2.745235        74.7016 
  49   0.0000       2.745273        74.7027 
  50   0.0000       2.887148        78.5633 
  51   0.0000       3.056974        83.1845 
  52   0.0000       3.207461        87.2795 
  53   0.0000       3.207515        87.2809 
  54   0.0000       3.320928        90.3671 
  55   0.0000       3.320992        90.3688 
  56   0.0000       3.410101        92.7936 
  57   0.0000       3.488301        94.9215 
  58   0.0000       3.726620       101.4065 
  59   0.0000       3.726656       101.4075 
  60   0.0000       4.454769       121.2204 
  61   0.0000       4.454940       121.2251 
  62   0.0000       4.512822       122.8001 
  63   0.0000      22.207406       604.2942 

                    ********************************
                    * MULLIKEN POPULATION ANALYSIS *
                    ********************************

--------------------------------------------
MULLIKEN ATOMIC CHARGES AND SPIN POPULATIONS
--------------------------------------------
   0 C :   -0.697636    0.881678
   1 H :    0.232234    0.039392
   2 H :    0.232701    0.039465
   3 H :    0.232701    0.039465
Sum of atomic charges         :   -0.0000000
Sum of atomic spin populations:    1.0000000

-----------------------------------------------------
MULLIKEN REDUCED ORBITAL CHARGES AND SPIN POPULATIONS
-----------------------------------------------------
CHARGE
  0 C s       :     3.350340  s :     3.350340
      pz      :     0.940548  p :     3.300568
      px      :     1.179942
      py      :     1.180079
      dz2     :     0.000899  d :     0.045863
      dxz     :     0.013860
      dyz     :     0.013885
      dx2y2   :     0.008598
      dxy     :     0.008621
      f0      :     0.000429  f :     0.000866
      f+1     :     0.000046
      f-1     :     0.000045
      f+2     :    -0.000098
      f-2     :    -0.000093
      f+3     :     0.000536
      f-3     :     0.000000
  1 H s       :     0.721924  s :     0.721924
      pz      :     0.022684  p :     0.045842
      px      :     0.019903
      py      :     0.003255
  2 H s       :     0.721591  s :     0.721591
      pz      :     0.022595  p :     0.045708
      px      :     0.007410
      py      :     0.015703
  3 H s       :     0.721592  s :     0.721592
      pz      :     0.022594  p :     0.045707
      px      :     0.007410
      py      :     0.015702

SPIN
  0 C s       :     0.011317  s :     0.011317
      pz      :     0.870095  p :     0.879861
      px      :     0.004891
      py      :     0.004875
      dz2     :    -0.001488  d :    -0.008683
      dxz     :    -0.003406
      dyz     :    -0.003408
      dx2y2   :    -0.000192
      dxy     :    -0.000189
      f0      :    -0.000413  f :    -0.000818
      f+1     :    -0.000116
      f-1     :    -0.000115
      f+2     :    -0.000018
      f-2     :    -0.000018
      f+3     :    -0.000137
      f-3     :     0.000000
  1 H s       :     0.015614  s :     0.015614
      pz      :     0.020120  p :     0.023778
      px      :     0.000635
      py      :     0.003023
  2 H s       :     0.015752  s :     0.015752
      pz      :     0.020051  p :     0.023713
      px      :     0.002426
      py      :     0.001236
  3 H s       :     0.015752  s :     0.015752
      pz      :     0.020051  p :     0.023712
      px      :     0.002426
      py      :     0.001236


                     *******************************
                     * LOEWDIN POPULATION ANALYSIS *
                     *******************************

-------------------------------------------
LOEWDIN ATOMIC CHARGES AND SPIN POPULATIONS
-------------------------------------------
   0 C :    0.057401    0.834263
   1 H :   -0.019161    0.055246
   2 H :   -0.019120    0.055245
   3 H :   -0.019120    0.055245

----------------------------------------------------
LOEWDIN REDUCED ORBITAL CHARGES AND SPIN POPULATIONS
----------------------------------------------------
CHARGE
  0 C s       :     2.910650  s :     2.910650
      pz      :     0.772417  p :     2.902374
      px      :     1.064985
      py      :     1.064972
      dz2     :     0.006238  d :     0.118990
      dxz     :     0.022798
      dyz     :     0.022804
      dx2y2   :     0.033572
      dxy     :     0.033577
      f0      :     0.001350  f :     0.010585
      f+1     :     0.000080
      f-1     :     0.000080
      f+2     :     0.003139
      f-2     :     0.003142
      f+3     :     0.002793
      f-3     :     0.000000
  1 H s       :     0.755655  s :     0.755655
      pz      :     0.069165  p :     0.263506
      px      :     0.122074
      py      :     0.072267
  2 H s       :     0.755634  s :     0.755634
      pz      :     0.069144  p :     0.263486
      px      :     0.084709
      py      :     0.109633
  3 H s       :     0.755634  s :     0.755634
      pz      :     0.069144  p :     0.263486
      px      :     0.084709
      py      :     0.109633

SPIN
  0 C s       :     0.089931  s :     0.089931
      pz      :     0.717010  p :     0.753314
      px      :     0.018158
      py      :     0.018146
      dz2     :     0.000648  d :    -0.008569
      dxz     :    -0.002887
      dyz     :    -0.002889
      dx2y2   :    -0.001724
      dxy     :    -0.001718
      f0      :    -0.000224  f :    -0.000412
      f+1     :    -0.000070
      f-1     :    -0.000070
      f+2     :    -0.000162
      f-2     :    -0.000162
      f+3     :     0.000275
      f-3     :     0.000000
  1 H s       :    -0.003657  s :    -0.003657
      pz      :     0.056580  p :     0.058902
      px      :     0.003088
      py      :    -0.000766
  2 H s       :    -0.003659  s :    -0.003659
      pz      :     0.056581  p :     0.058905
      px      :     0.000197
      py      :     0.002127
  3 H s       :    -0.003659  s :    -0.003659
      pz      :     0.056581  p :     0.058905
      px      :     0.000197
      py      :     0.002127


                      *****************************
                      * MAYER POPULATION ANALYSIS *
                      *****************************

  NA   - Mulliken gross atomic population
  ZA   - Total nuclear charge
  QA   - Mulliken gross atomic charge
  VA   - Mayer's total valence
  BVA  - Mayer's bonded valence
  FA   - Mayer's free valence

  ATOM       NA         ZA         QA         VA         BVA        FA
  0 C      6.6976     6.0000    -0.6976     3.8011     3.0031     0.7980
  1 H      0.7678     1.0000     0.2322     1.0128     1.0114     0.0014
  2 H      0.7673     1.0000     0.2327     1.0122     1.0108     0.0013
  3 H      0.7673     1.0000     0.2327     1.0122     1.0108     0.0013

  Mayer bond orders larger than 0.100000
B(  0-C ,  1-H ) :   1.0014 B(  0-C ,  2-H ) :   1.0009 B(  0-C ,  3-H ) :   1.0008 


-------
TIMINGS
-------

Total SCF time: 0 days 0 hours 0 min 7 sec 

Total time                  ....       7.463 sec
Sum of individual times     ....       6.777 sec  ( 90.8%)

Fock matrix formation       ....       5.511 sec  ( 73.8%)
  Split-RI-J                ....       0.753 sec  ( 13.7% of F)
  Chain of spheres X        ....       1.309 sec  ( 23.8% of F)
  XC integration            ....       1.134 sec  ( 20.6% of F)
    Basis function eval.    ....       0.050 sec  (  4.4% of XC)
    Density eval.           ....       0.049 sec  (  4.3% of XC)
    XC-Functional eval.     ....       0.051 sec  (  4.5% of XC)
    XC-Potential eval.      ....       0.071 sec  (  6.3% of XC)
Diagonalization             ....       0.137 sec  (  1.8%)
Density matrix formation    ....       0.013 sec  (  0.2%)
Population analysis         ....       0.145 sec  (  1.9%)
Initial guess               ....       0.116 sec  (  1.6%)
Orbital Transformation      ....       0.000 sec  (  0.0%)
Orbital Orthonormalization  ....       0.000 sec  (  0.0%)
DIIS solution               ....       0.468 sec  (  6.3%)
Grid generation             ....       0.388 sec  (  5.2%)

Maximum memory used throughout the entire SCF-calculation: 58.5 MB


-------------------------------------------------------------------------------
                          DFT DISPERSION CORRECTION                            
                                                                               
                              DFTD3 V3.1  Rev 1                                
                              USING zero damping                               
-------------------------------------------------------------------------------
The omegaB97X-D3 functional is recognized. Fit by Chai et al.
Active option DFTDOPT                   ...         3   

molecular C6(AA) [au] = 106.959922 


            DFT-D V3
 parameters
 s6 scaling factor         :     1.0000 
 rs6 scaling factor        :     1.2810 
 s8 scaling factor         :     1.0000 
 rs8 scaling factor        :     1.0940 
 Damping factor alpha6     :    14.0000 
 Damping factor alpha8     :    16.0000 
 ad hoc parameters k1-k3   :    16.0000     1.3333    -4.0000 

 Edisp/kcal,au: -0.005951791597  -0.000009484783 
 E6   /kcal   :  -0.000926690 
 E8   /kcal   :  -0.005025102 
 % E8         :  84.430069843 

-------------------------   ----------------
Dispersion correction           -0.000009485
-------------------------   ----------------


-------------------------   --------------------
FINAL SINGLE POINT ENERGY       -39.820916246233
-------------------------   --------------------



           ************************************************************
           *        Program running with 18 parallel MPI-processes    *
           *              working on a common directory               *
           ************************************************************
------------------------------------------------------------------------------
                         ORCA SCF GRADIENT CALCULATION
------------------------------------------------------------------------------

 ... reading COSX grid (gridx3)
Gradient of the Kohn-Sham DFT energy:
Kohn-Sham wavefunction type      ... UKS
Hartree-Fock exchange scaling    ...    0.196
Number of operators              ...    2
Number of atoms                  ...    4
Basis set dimensions             ...   64
Integral neglect threshold       ... 2.5e-11
Integral primitive cutoff        ... 2.5e-12
SHARK Integral package           ... ON

Nuc. rep. gradient       (SHARK) ... done (  0.0 sec)
HCore & Overlap gradient (SHARK) ... done (  0.0 sec)
RI-J gradient            (SHARK) ... done (  0.1 sec)
COSX-gradient                    ... done (  0.1 sec)
Exchange-correlation gradient    ... done
Dispersion correction            ... done

------------------
CARTESIAN GRADIENT
------------------

WARNING: THERE ARE 3 CONSTRAINED CARTESIAN COORDINATES
   1   C   :    0.000029574    0.000000007    0.049172708
   2   H   :   -0.016421642    0.000000007   -0.016398806
   3   H   :    0.008163676   -0.014282505   -0.016403749
   4   H   :    0.008163657    0.014282502   -0.016403771

Difference to translation invariance:
           :   -0.0000647348    0.0000000108   -0.0000336182

Difference to rotation invariance:
           :    0.0000000404    0.0000665275   -0.0000000152

Norm of the cartesian gradient     ...    0.0635293997
RMS gradient                       ...    0.0183393580
MAX gradient                       ...    0.0491727079

-------
TIMINGS
-------

Total SCF gradient time            ...        0.646 sec

One electron gradient       ....       0.006 sec  (  1.0%)
RI-J Coulomb gradient       ....       0.129 sec  ( 20.0%)
COSX gradient               ....       0.122 sec  ( 18.8%)
XC gradient                 ....       0.070 sec  ( 10.9%)

Maximum memory used throughout the entire SCFGRAD-calculation: 33.6 MB
------------------------------------------------------------------------------
                         ORCA GEOMETRY RELAXATION STEP
------------------------------------------------------------------------------

Reading the OPT-File                    .... done
Getting information on internals        .... done
Copying old internal coords+grads       .... done
Making the new internal coordinates     .... (new redundants).... done
Validating the new internal coordinates .... (new redundants).... done
Calculating the B-matrix                .... done
Calculating the G,G- and P matrices     .... done
Transforming gradient to internals      .... done
Projecting the internal gradient        .... done
Number of atoms                         ....   4
Number of internal coordinates          ....   7
Current Energy                          ....   -39.820916246 Eh
Current gradient norm                   ....     0.063529400 Eh/bohr
Maximum allowed component of the step   ....  0.300
Current trust radius                    ....  0.300
Evaluating the initial hessian          ....  (Almloef) done
Projecting the Hessian                  .... done
Forming the augmented Hessian           .... done
Diagonalizing the augmented Hessian     .... done
Last element of RFO vector              ....  0.999198606
Lowest eigenvalues of augmented Hessian:
 -0.000600445  0.373574723  0.373574723  0.374175168 1000.000000000
Length of the computed step             ....  0.040058914
The final length of the internal step   ....  0.040058914
Converting the step to cartesian space:
 Initial RMS(Int)=    0.0151408462
Transforming coordinates:
 Iter   0:  RMS(Cart)=    0.0108702800 RMS(Int)=    0.0151408462
 Iter   1:  RMS(Cart)=    0.0000000001 RMS(Int)=    0.0000000003
Imposing constraints:
 Iter   0:  RMS(Cart)=    0.0000000002 RMS(Int)=    0.0000000005
CONVERGED
done
Storing new coordinates                 .... done

                                .--------------------.
          ----------------------|Geometry convergence|-------------------------
          Item                value                   Tolerance       Converged
          ---------------------------------------------------------------------
          RMS gradient        0.0056653287            0.0001000000      NO
          MAX gradient        0.0086683299            0.0003000000      NO
          RMS step            0.0151408462            0.0020000000      NO
          MAX step            0.0231665024            0.0040000000      NO
          ........................................................
          Max(Bonds)      0.0123      Max(Angles)    0.00
          Max(Dihed)        0.00      Max(Improp)    0.00
          ---------------------------------------------------------------------

The optimization has not yet converged - more geometry cycles are needed


    ---------------------------------------------------------------------------
                         Redundant Internal Coordinates
                            (Angstroem and degrees)

        Definition                    Value    dE/dq     Step     New-Value
    ----------------------------------------------------------------------------
     1. B(H   1,C   0)                1.0800 -0.008625  0.0122    1.0922   
     2. B(H   2,C   0)                1.0800 -0.008668  0.0123    1.0923   
     3. B(H   3,C   0)                1.0800 -0.008668  0.0123    1.0923   
     4. A(H   2,C   0,H   3)          105.50 -0.029224    0.00    105.50 C 
     5. A(H   1,C   0,H   2)          105.50 -0.011878    0.00    105.50 C 
     6. A(H   1,C   0,H   3)          105.50 -0.011878    0.00    105.50 C 
     7. I(H   1,H   3,H   2,C   0)     63.80  0.030530   -0.00     63.80   
    ----------------------------------------------------------------------------

         *************************************************************
         *                GEOMETRY OPTIMIZATION CYCLE   2            *
         *************************************************************
---------------------------------
CARTESIAN COORDINATES (ANGSTROEM)
---------------------------------
  C      0.000018   -0.000000    0.003616
  H      1.003900   -0.000000   -0.426636
  H     -0.501959    0.869440   -0.426643
  H     -0.501959   -0.869440   -0.426643

----------------------------
CARTESIAN COORDINATES (A.U.)
----------------------------
  NO LB      ZA    FRAG     MASS         X           Y           Z
   0 C     6.0000    0    12.011    0.000033   -0.000000    0.006833
   1 H     1.0000    0     1.008    1.897096   -0.000000   -0.806225
   2 H     1.0000    0     1.008   -0.948565    1.643004   -0.806239
   3 H     1.0000    0     1.008   -0.948565   -1.643004   -0.806239

--------------------------------
INTERNAL COORDINATES (ANGSTROEM)
--------------------------------
 C      0   0   0     0.000000000000     0.00000000     0.00000000
 H      1   0   0     1.092198024770     0.00000000     0.00000000
 H      1   2   0     1.092259185053   105.49999998     0.00000000
 H      1   2   3     1.092259158701   105.49999998   111.38913910

---------------------------
INTERNAL COORDINATES (A.U.)
---------------------------
 C      0   0   0     0.000000000000     0.00000000     0.00000000
 H      1   0   0     2.063955150825     0.00000000     0.00000000
 H      1   2   0     2.064070727009   105.49999998     0.00000000
 H      1   2   3     2.064070677212   105.49999998   111.38913910



           ************************************************************
           *        Program running with 18 parallel MPI-processes    *
           *              working on a common directory               *
           ************************************************************
------------------------------------------------------------------------------
                   ___                                                        
                  /   \      - P O W E R E D   B Y -                         
                 /     \                                                     
                 |  |  |   _    _      __       _____    __    __             
                 |  |  |  | |  | |    /  \     |  _  \  |  |  /  |          
                  \  \/   | |  | |   /    \    | | | |  |  | /  /          
                 / \  \   | |__| |  /  /\  \   | |_| |  |  |/  /          
                |  |  |   |  __  | /  /__\  \  |    /   |      \           
                |  |  |   | |  | | |   __   |  |    \   |  |\   \          
                \     /   | |  | | |  |  |  |  | |\  \  |  | \   \       
                 \___/    |_|  |_| |__|  |__|  |_| \__\ |__|  \__/        
                                                                              
                      - O R C A' S   B I G   F R I E N D -                    
                                      &                                       
                       - I N T E G R A L  F E E D E R -                       
                                                                              
 v1 FN, 2020, v2 2021                                                         
------------------------------------------------------------------------------


Reading SHARK input file /beegfs/scratch/ispackman/PFAS_EPR_calcs/benchmark/JChemEd_CF3_radical/CH3_radical_105.5_degrees_IN-PROGRESS/CH3_radical_105.5_degrees.SHARKINP.tmp ... ok
----------------------
SHARK INTEGRAL PACKAGE
----------------------

Number of atoms                             ...      4
Number of basis functions                   ...     64
Number of shells                            ...     28
Maximum angular momentum                    ...      3
Integral batch strategy                     ... SHARK/LIBINT Hybrid
RI-J (if used) integral strategy            ... SPLIT-RIJ (Revised 2003 algorithm where possible)
Printlevel                                  ...      1
Contraction scheme used                     ... SEGMENTED contraction
Coulomb Range Separation                    ... NOT USED
Exchange Range Separation                   ... Long Range
   Mu parameter                             ...  0.250000
   Scaling (regular/separated)              ...  0.195728  0.804272
Finite Nucleus Model                        ... NOT USED
Auxiliary Coulomb fitting basis             ... AVAILABLE
   # of basis functions in Aux-J            ...     82
   # of shells in Aux-J                     ...     30
   Maximum angular momentum in Aux-J        ...      4
Auxiliary J/K fitting basis                 ... NOT available
Auxiliary Correlation fitting basis         ... NOT available
Auxiliary 'external' fitting basis          ... NOT available
Integral threshold                          ...     2.500000e-11
Primitive cut-off                           ...     2.500000e-12
Primitive pair pre-selection threshold      ...     2.500000e-12

Calculating pre-screening integrals         ... done (  0.0 sec) Dimension = 28
Organizing shell pair data                  ... done (  0.0 sec)
Shell pair information
Total number of shell pairs                 ...       406
Shell pairs after pre-screening             ...       406
Total number of primitive shell pairs       ...       977
Primitive shell pairs kept                  ...       944
          la=0 lb=0:    120 shell pairs
          la=1 lb=0:    135 shell pairs
          la=1 lb=1:     45 shell pairs
          la=2 lb=0:     45 shell pairs
          la=2 lb=1:     27 shell pairs
          la=2 lb=2:      6 shell pairs
          la=3 lb=0:     15 shell pairs
          la=3 lb=1:      9 shell pairs
          la=3 lb=2:      3 shell pairs
          la=3 lb=3:      1 shell pairs

Calculating one electron integrals          ... done (  0.0 sec)
Calculating RI/J V-Matrix + Cholesky decomp.... done (  0.0 sec)
Calculating Nuclear repulsion               ... done (  0.0 sec) ENN=      9.633772926146 Eh

SHARK setup successfully completed in   0.3 seconds

Maximum memory used throughout the entire GTOINT-calculation: 14.0 MB


           ************************************************************
           *        Program running with 18 parallel MPI-processes    *
           *              working on a common directory               *
           ************************************************************

Diagonalization of the overlap matrix:
Smallest eigenvalue                        ... 5.072e-05
Time for diagonalization                   ...    0.001 sec
Threshold for overlap eigenvalues          ... 1.000e-08
Number of eigenvalues below threshold      ... 0
Time for construction of square roots      ...    0.014 sec
Total time needed                          ...    0.016 sec

-------------------
DFT GRID GENERATION
-------------------

General Integration Accuracy     IntAcc      ... 4.388
Radial Grid Type                 RadialGrid  ... OptM3 with GC (2021)
Angular Grid (max. ang.)         AngularGrid ... 4 (Lebedev-302)
Angular grid pruning method      GridPruning ... 4 (adaptive)
Weight generation scheme         WeightScheme... Becke
Basis function cutoff            BFCut       ... 1.0000e-11
Integration weight cutoff        WCut        ... 1.0000e-14
Angular grids for H and He will be reduced by one unit
Partially contracted basis set               ... off
Rotationally invariant grid construction     ... off

Total number of grid points                  ...    17051
Total number of batches                      ...      268
Average number of points per batch           ...       63
Average number of grid points per atom       ...     4263
Time for grid setup =    0.094 sec

--------------------
COSX GRID GENERATION
--------------------

GRIDX 1
-------
General Integration Accuracy     IntAcc      ... 3.816
Radial Grid Type                 RadialGrid  ... OptM3 with GC (2021)
Angular Grid (max. ang.)         AngularGrid ... 1 (Lebedev-50)
Angular grid pruning method      GridPruning ... 4 (adaptive)
Weight generation scheme         WeightScheme... Becke
Basis function cutoff            BFCut       ... 1.0000e-11
Integration weight cutoff        WCut        ... 1.0000e-14
Angular grids for H and He will be reduced by one unit
Partially contracted basis set               ... on
Rotationally invariant grid construction     ... off

Total number of grid points                  ...     2149
Total number of batches                      ...       36
Average number of points per batch           ...       59
Average number of grid points per atom       ...      537
UseSFitting                                  ... on

GRIDX 2
-------
General Integration Accuracy     IntAcc      ... 4.020
Radial Grid Type                 RadialGrid  ... OptM3 with GC (2021)
Angular Grid (max. ang.)         AngularGrid ... 2 (Lebedev-110)
Angular grid pruning method      GridPruning ... 4 (adaptive)
Weight generation scheme         WeightScheme... Becke
Basis function cutoff            BFCut       ... 1.0000e-11
Integration weight cutoff        WCut        ... 1.0000e-14
Angular grids for H and He will be reduced by one unit
Partially contracted basis set               ... on
Rotationally invariant grid construction     ... off

Total number of grid points                  ...     5036
Total number of batches                      ...       82
Average number of points per batch           ...       61
Average number of grid points per atom       ...     1259
UseSFitting                                  ... on

GRIDX 3
-------
General Integration Accuracy     IntAcc      ... 4.338
Radial Grid Type                 RadialGrid  ... OptM3 with GC (2021)
Angular Grid (max. ang.)         AngularGrid ... 3 (Lebedev-194)
Angular grid pruning method      GridPruning ... 4 (adaptive)
Weight generation scheme         WeightScheme... Becke
Basis function cutoff            BFCut       ... 1.0000e-11
Integration weight cutoff        WCut        ... 1.0000e-14
Angular grids for H and He will be reduced by one unit
Partially contracted basis set               ... on
Rotationally invariant grid construction     ... off

Total number of grid points                  ...    11712
Total number of batches                      ...      186
Average number of points per batch           ...       62
Average number of grid points per atom       ...     2928
UseSFitting                                  ... on

Time for X-Grid setup             =    0.234 sec

--------------
SCF ITERATIONS
--------------
ITER       Energy         Delta-E        Max-DP      RMS-DP      [F,P]     Damp
               ***  Starting incremental Fock matrix formation  ***
  0    -39.8211205254   0.000000000000 0.00614565  0.00010919  0.0030809 0.7000
  1    -39.8211482237  -0.000027698321 0.00541990  0.00009552  0.0020882 0.7000
                               ***Turning on DIIS***
  2    -39.8211667646  -0.000018540876 0.01418192  0.00024848  0.0014198 0.0000
  3    -39.8212075397  -0.000040775102 0.00351332  0.00006250  0.0005845 0.0000
               *** Restarting incremental Fock matrix formation ***
                                   *** Resetting DIIS ***
  4    -39.8212094426  -0.000001902846 0.00033089  0.00001100  0.0002572 0.0000
  5    -39.8212097609  -0.000000318342 0.00031817  0.00000630  0.0001577 0.0000
  6    -39.8212098889  -0.000000127976 0.00006744  0.00000250  0.0000311 0.0000
  7    -39.8212099008  -0.000000011944 0.00002265  0.00000082  0.0000084 0.0000
                 **** Energy Check signals convergence ****

               *****************************************************
               *                     SUCCESS                       *
               *           SCF CONVERGED AFTER   8 CYCLES          *
               *****************************************************

Old exchange energy                            =     -2.170525430 Eh
New exchange energy                            =     -2.170529404 Eh
Exchange energy change after final integration =     -0.000003974 Eh
Total energy after final integration           =    -39.821213876 Eh
Final COS-X integration done in                =     0.122 sec
Total Energy       :          -39.82121388 Eh           -1083.59032 eV
  Last Energy change         ...   -8.2898e-10  Tolerance :   1.0000e-08
  Last MAX-Density change    ...    0.0000e+00  Tolerance :   1.0000e-07
             **** THE GBW FILE WAS UPDATED (/beegfs/scratch/ispackman/PFAS_EPR_calcs/benchmark/JChemEd_CF3_radical/CH3_radical_105.5_degrees_IN-PROGRESS/CH3_radical_105.5_degrees.gbw) ****
             **** DENSITY /beegfs/scratch/ispackman/PFAS_EPR_calcs/benchmark/JChemEd_CF3_radical/CH3_radical_105.5_degrees_IN-PROGRESS/CH3_radical_105.5_degrees.scfp WAS UPDATED ****
             **** ENERGY FILE WAS UPDATED (/beegfs/scratch/ispackman/PFAS_EPR_calcs/benchmark/JChemEd_CF3_radical/CH3_radical_105.5_degrees_IN-PROGRESS/CH3_radical_105.5_degrees.en.tmp) ****
----------------------
UHF SPIN CONTAMINATION
----------------------

Warning: in a DFT calculation there is little theoretical justification to 
         calculate <S**2> as in Hartree-Fock theory. We will do it anyways
         but you should keep in mind that the values have only limited relevance

Expectation value of <S**2>     :     0.753017
Ideal value S*(S+1) for S=0.5   :     0.750000
Deviation                       :     0.003017

             **** THE GBW FILE WAS UPDATED (/beegfs/scratch/ispackman/PFAS_EPR_calcs/benchmark/JChemEd_CF3_radical/CH3_radical_105.5_degrees_IN-PROGRESS/CH3_radical_105.5_degrees.gbw) ****
             **** DENSITY /beegfs/scratch/ispackman/PFAS_EPR_calcs/benchmark/JChemEd_CF3_radical/CH3_radical_105.5_degrees_IN-PROGRESS/CH3_radical_105.5_degrees.scfp WAS UPDATED ****
Total SCF time: 0 days 0 hours 0 min 5 sec 

Maximum memory used throughout the entire SCF-calculation: 58.5 MB


-------------------------------------------------------------------------------
                          DFT DISPERSION CORRECTION                            
                                                                               
                              DFTD3 V3.1  Rev 1                                
                              USING zero damping                               
-------------------------------------------------------------------------------
-------------------------   ----------------
Dispersion correction           -0.000010381
-------------------------   ----------------


-------------------------   --------------------
FINAL SINGLE POINT ENERGY       -39.821224256346
-------------------------   --------------------



           ************************************************************
           *        Program running with 18 parallel MPI-processes    *
           *              working on a common directory               *
           ************************************************************
------------------------------------------------------------------------------
                         ORCA SCF GRADIENT CALCULATION
------------------------------------------------------------------------------

 ... reading COSX grid (gridx3)
Gradient of the Kohn-Sham DFT energy:
Kohn-Sham wavefunction type      ... UKS
Hartree-Fock exchange scaling    ...    0.196
Number of operators              ...    2
Number of atoms                  ...    4
Basis set dimensions             ...   64
Integral neglect threshold       ... 2.5e-11
Integral primitive cutoff        ... 2.5e-12
SHARK Integral package           ... ON

Nuc. rep. gradient       (SHARK) ... done (  0.0 sec)
HCore & Overlap gradient (SHARK) ... done (  0.0 sec)
RI-J gradient            (SHARK) ... done (  0.1 sec)
COSX-gradient                    ... done (  0.1 sec)
Exchange-correlation gradient    ... done
Dispersion correction            ... done

------------------
CARTESIAN GRADIENT
------------------

WARNING: THERE ARE 3 CONSTRAINED CARTESIAN COORDINATES
   1   C   :    0.000068018   -0.000000051    0.057222350
   2   H   :   -0.008528785   -0.000000007   -0.019074320
   3   H   :    0.004196847   -0.007411124   -0.019093384
   4   H   :    0.004196859    0.007411156   -0.019093369

Difference to translation invariance:
           :   -0.0000670613   -0.0000000265   -0.0000387222

Difference to rotation invariance:
           :   -0.0000000056    0.0000705597   -0.0000000244

Norm of the cartesian gradient     ...    0.0677138311
RMS gradient                       ...    0.0195472993
MAX gradient                       ...    0.0572223496

-------
TIMINGS
-------

Total SCF gradient time            ...        0.615 sec

One electron gradient       ....       0.006 sec  (  1.1%)
RI-J Coulomb gradient       ....       0.142 sec  ( 23.1%)
COSX gradient               ....       0.120 sec  ( 19.6%)
XC gradient                 ....       0.059 sec  (  9.6%)

Maximum memory used throughout the entire SCFGRAD-calculation: 33.6 MB
------------------------------------------------------------------------------
                         ORCA GEOMETRY RELAXATION STEP
------------------------------------------------------------------------------

Reading the OPT-File                    .... done
Getting information on internals        .... done
Copying old internal coords+grads       .... done
Making the new internal coordinates     .... (new redundants).... done
Validating the new internal coordinates .... (new redundants).... done
Calculating the B-matrix                .... done
Calculating the G,G- and P matrices     .... done
Transforming gradient to internals      .... done
Projecting the internal gradient        .... done
Number of atoms                         ....   4
Number of internal coordinates          ....   7
Current Energy                          ....   -39.821224256 Eh
Current gradient norm                   ....     0.067713831 Eh/bohr
Maximum allowed component of the step   ....  0.300
Current trust radius                    ....  0.300
Updating the Hessian (BFGS)             .... done
Forming the augmented Hessian           .... done
Diagonalizing the augmented Hessian     .... done
Last element of RFO vector              ....  0.999998842
Lowest eigenvalues of augmented Hessian:
 -0.000000835  0.360479600  0.373574723  0.373574761 999.999999999
Length of the computed step             ....  0.001522034
The final length of the internal step   ....  0.001522034
Converting the step to cartesian space:
 Initial RMS(Int)=    0.0005752748
Transforming coordinates:
 Iter   0:  RMS(Cart)=    0.0004130155 RMS(Int)=    0.0005752748
 Iter   1:  RMS(Cart)=    0.0000000000 RMS(Int)=    0.0000000000
Imposing constraints:
 Iter   0:  RMS(Cart)=    0.0000000001 RMS(Int)=    0.0000000003
CONVERGED
done
Storing new coordinates                 .... done

                                .--------------------.
          ----------------------|Geometry convergence|-------------------------
          Item                value                   Tolerance       Converged
          ---------------------------------------------------------------------
          Energy change      -0.0003080101            0.0000050000      NO
          RMS gradient        0.0002073748            0.0001000000      NO
          MAX gradient        0.0003169653            0.0003000000      NO
          RMS step            0.0005752748            0.0020000000      YES
          MAX step            0.0008792862            0.0040000000      YES
          ........................................................
          Max(Bonds)      0.0005      Max(Angles)    0.00
          Max(Dihed)        0.00      Max(Improp)    0.00
          ---------------------------------------------------------------------

       The step convergence is overachieved with 
       reasonable convergence on the gradient
       Convergence will therefore be signaled now


                    ***********************HURRAY********************
                    ***        THE OPTIMIZATION HAS CONVERGED     ***
                    *************************************************


    ---------------------------------------------------------------------------
                         Redundant Internal Coordinates

                          --- Optimized Parameters ---  
                            (Angstroem and degrees)

        Definition                    OldVal   dE/dq     Step     FinalVal
    ----------------------------------------------------------------------------
     1. B(H   1,C   0)                1.0922 -0.000316  0.0005    1.0927   
     2. B(H   2,C   0)                1.0923 -0.000317  0.0005    1.0927   
     3. B(H   3,C   0)                1.0923 -0.000317  0.0005    1.0927   
     4. A(H   2,C   0,H   3)          105.50 -0.028660   -0.00    105.50 C 
     5. A(H   1,C   0,H   2)          105.50 -0.011648   -0.00    105.50 C 
     6. A(H   1,C   0,H   3)          105.50 -0.011648   -0.00    105.50 C 
     7. I(H   1,H   3,H   2,C   0)     63.80  0.029939    0.00     63.80   
    ----------------------------------------------------------------------------
                 *******************************************************
                 *** FINAL ENERGY EVALUATION AT THE STATIONARY POINT ***
                 ***               (AFTER    2 CYCLES)               ***
                 *******************************************************
---------------------------------
CARTESIAN COORDINATES (ANGSTROEM)
---------------------------------
  C      0.000018    0.000000    0.003753
  H      1.004327    0.000000   -0.426682
  H     -0.502172    0.869811   -0.426689
  H     -0.502173   -0.869811   -0.426689

----------------------------
CARTESIAN COORDINATES (A.U.)
----------------------------
  NO LB      ZA    FRAG     MASS         X           Y           Z
   0 C     6.0000    0    12.011    0.000034    0.000000    0.007093
   1 H     1.0000    0     1.008    1.897903    0.000000   -0.806311
   2 H     1.0000    0     1.008   -0.948968    1.643704   -0.806326
   3 H     1.0000    0     1.008   -0.948969   -1.643704   -0.806326

--------------------------------
INTERNAL COORDINATES (ANGSTROEM)
--------------------------------
 C      0   0   0     0.000000000000     0.00000000     0.00000000
 H      1   0   0     1.092662538040     0.00000000     0.00000000
 H      1   2   0     1.092724411524   105.49999997     0.00000000
 H      1   2   3     1.092724456929   105.49999997   111.38913908

---------------------------
INTERNAL COORDINATES (A.U.)
---------------------------
 C      0   0   0     0.000000000000     0.00000000     0.00000000
 H      1   0   0     2.064832953692     0.00000000     0.00000000
 H      1   2   0     2.064949877631   105.49999997     0.00000000
 H      1   2   3     2.064949963433   105.49999997   111.38913908

---------------------
BASIS SET INFORMATION
---------------------
There are 2 groups of distinct atoms

 Group   1 Type C   : 12s6p3d1f contracted to 6s3p3d1f pattern {621111/411/111/1}
 Group   2 Type H   : 5s2p contracted to 3s2p pattern {311/11}

Atom   0C    basis set group =>   1
Atom   1H    basis set group =>   2
Atom   2H    basis set group =>   2
Atom   3H    basis set group =>   2
---------------------------------
AUXILIARY/J BASIS SET INFORMATION
---------------------------------
There are 2 groups of distinct atoms

 Group   1 Type C   : 12s5p4d2f1g contracted to 6s4p3d1f1g pattern {711111/2111/211/2/1}
 Group   2 Type H   : 5s2p1d contracted to 3s1p1d pattern {311/2/1}

Atom   0C    basis set group =>   1
[...]
  ZA   - Total nuclear charge
  QA   - Mulliken gross atomic charge
  VA   - Mayer's total valence
  BVA  - Mayer's bonded valence
  FA   - Mayer's free valence

  ATOM       NA         ZA         QA         VA         BVA        FA
  0 C      6.6838     6.0000    -0.6838     3.8059     3.0016     0.8043
  1 H      0.7724     1.0000     0.2276     1.0160     1.0148     0.0012
  2 H      0.7719     1.0000     0.2281     1.0154     1.0141     0.0012
  3 H      0.7719     1.0000     0.2281     1.0153     1.0141     0.0012

  Mayer bond orders larger than 0.100000
B(  0-C ,  1-H ) :   1.0009 B(  0-C ,  2-H ) :   1.0004 B(  0-C ,  3-H ) :   1.0003 


-------
TIMINGS
-------

Total SCF time: 0 days 0 hours 0 min 4 sec 

Total time                  ....       4.582 sec
Sum of individual times     ....       4.023 sec  ( 87.8%)

Fock matrix formation       ....       3.292 sec  ( 71.8%)
  Split-RI-J                ....       0.494 sec  ( 15.0% of F)
  Chain of spheres X        ....       0.831 sec  ( 25.2% of F)
  XC integration            ....       0.651 sec  ( 19.8% of F)
    Basis function eval.    ....       0.030 sec  (  4.5% of XC)
    Density eval.           ....       0.028 sec  (  4.4% of XC)
    XC-Functional eval.     ....       0.032 sec  (  4.9% of XC)
    XC-Potential eval.      ....       0.040 sec  (  6.1% of XC)
Diagonalization             ....       0.093 sec  (  2.0%)
Density matrix formation    ....       0.009 sec  (  0.2%)
Population analysis         ....       0.132 sec  (  2.9%)
Initial guess               ....       0.006 sec  (  0.1%)
Orbital Transformation      ....       0.000 sec  (  0.0%)
Orbital Orthonormalization  ....       0.002 sec  (  0.0%)
DIIS solution               ....       0.130 sec  (  2.8%)
Grid generation             ....       0.361 sec  (  7.9%)

Maximum memory used throughout the entire SCF-calculation: 58.5 MB


-------------------------------------------------------------------------------
                          DFT DISPERSION CORRECTION                            
                                                                               
                              DFTD3 V3.1  Rev 1                                
                              USING zero damping                               
-------------------------------------------------------------------------------
The omegaB97X-D3 functional is recognized. Fit by Chai et al.
Active option DFTDOPT                   ...         3   

molecular C6(AA) [au] = 106.990986 


            DFT-D V3
 parameters
 s6 scaling factor         :     1.0000 
 rs6 scaling factor        :     1.2810 
 s8 scaling factor         :     1.0000 
 rs8 scaling factor        :     1.0940 
 Damping factor alpha6     :    14.0000 
 Damping factor alpha8     :    16.0000 
 ad hoc parameters k1-k3   :    16.0000     1.3333    -4.0000 

 Edisp/kcal,au: -0.006536171362  -0.000010416051 
 E6   /kcal   :  -0.001017801 
 E8   /kcal   :  -0.005518370 
 % E8         :  84.428178507 

-------------------------   ----------------
Dispersion correction           -0.000010416
-------------------------   ----------------


-------------------------   --------------------
FINAL SINGLE POINT ENERGY       -39.821224691067
-------------------------   --------------------

                                *** OPTIMIZATION RUN DONE ***

                            ***************************************
                            *     ORCA property calculations      *
                            ***************************************

                                    ---------------------
                                    Active property flags
                                    ---------------------
   (+) Dipole Moment


------------------------------------------------------------------------------
                       ORCA ELECTRIC PROPERTIES CALCULATION
------------------------------------------------------------------------------

Dipole Moment Calculation                       ... on
Quadrupole Moment Calculation                   ... off
Polarizability Calculation                      ... off
GBWName                                         ... /beegfs/scratch/ispackman/PFAS_EPR_calcs/benchmark/JChemEd_CF3_radical/CH3_radical_105.5_degrees_IN-PROGRESS/CH3_radical_105.5_degrees.gbw
Electron density                                ... /beegfs/scratch/ispackman/PFAS_EPR_calcs/benchmark/JChemEd_CF3_radical/CH3_radical_105.5_degrees_IN-PROGRESS/CH3_radical_105.5_degrees.scfp
The origin for moment calculation is the CENTER OF MASS  = ( 0.000025,  0.000000 -0.156510)

-------------
DIPOLE MOMENT
-------------
                                X             Y             Z
Electronic contribution:      0.00006      -0.00000       0.69287
Nuclear contribution   :     -0.00005      -0.00000      -0.96782
                        -----------------------------------------
Total Dipole Moment    :      0.00000      -0.00000      -0.27495
                        -----------------------------------------
Magnitude (a.u.)       :      0.27495
Magnitude (Debye)      :      0.69886



--------------------
Rotational spectrum 
--------------------
 
Rotational constants in cm-1:     8.545364     8.544865     5.526411 
Rotational constants in MHz : 256183.575042 256168.617091 165677.621473 

 Dipole components along the rotational axes: 
x,y,z [a.u.] :     0.000000    -0.000005    -0.274948 
x,y,z [Debye]:     0.000000    -0.000013    -0.698862 

 


           ************************************************************
           *        Program running with 18 parallel MPI-processes    *
           *              working on a common directory               *
           ************************************************************

-------------------------------------------------------------------------------
                               ORCA SCF HESSIAN
-------------------------------------------------------------------------------

                   --------- SHARK INITIALIZATION DONE ---------

Hessian of the Kohn-Sham DFT energy:
Kohn-Sham wavefunction type                      ... UKS
Hartree-Fock exchange scaling                    ...    0.196
Number of operators                              ...    2
Number of atoms                                  ...    4
Basis set dimensions                             ...   64
Integral neglect threshold                       ... 2.5e-11
Integral primitive cutoff                        ... 2.5e-12

Setting up DFT Hessian calculations              ... 

HESS GRID
---------

General Integration Accuracy     IntAcc      ... 4.629
Radial Grid Type                 RadialGrid  ... OptM3 with GC (2021)
Angular Grid (max. ang.)         AngularGrid ... 5 (Lebedev-434)
Angular grid pruning method      GridPruning ... 4 (adaptive)
Weight generation scheme         WeightScheme... Becke
Basis function cutoff            BFCut       ... 1.0000e-11
Integration weight cutoff        WCut        ... 1.0000e-14
Angular grids for H and He will be reduced by one unit
Partially contracted basis set               ... off
Rotationally invariant grid construction     ... off

Total number of grid points                  ...    27262
Total number of batches                      ...      428
Average number of points per batch           ...       63
Average number of grid points per atom       ...     6816

Building densities                               ... done   (      0.0 sec)
Calculating rho(r) on the grid                   ... done   (      0.1 sec)
Building xc-kernel on the grid                   ... done   (      0.1 sec)
                                                     done   (      0.4 sec)

Nuclear repulsion Hessian  (SHARK)               ... done   (      0.0 sec)

----------------------------------------------
Forming right-hand sides of CP-SCF equations     ...
----------------------------------------------
One electron integral derivatives  (SHARK)       ... done   (      0.0 sec)
Transforming the overlap derivative matrices     ... done   (      0.0 sec)
Making the Q(x) pseudodensities                  ... done   (      0.0 sec)
Adding the E*S(x)*S(y) terms to the Hessian      ... done   (      0.0 sec)
Calculating energy weighted overlap derivatives  ... done   (      0.0 sec)
Two electron integral derivatives (SHARK-RI)     ... done   (      0.5 sec)
Exchange-correlation integral derivatives        ... done   (      0.4 sec)
tr(F(y)Q(x)) contribution to the Hessian         ... done   (      0.0 sec)
Response fock operator R(S(x)) (SHARK-RIJCOSX)   ... done   (      0.5 sec)
XC Response fock operator R(S(x))                ... done   (      0.2 sec)
tr(F(y)S(x)) contribution to the Hessian         ... done   (      0.0 sec)
Transforming and finalizing RHSs                 ... done   (      0.0 sec)

----------------------------------------------
Solving the CP-SCF equations (RIJCOSX)           ...
----------------------------------------------
     CP-SCF ITERATION   0:   1.0650e-01 (   0.3 sec   0/ 12 done)
     CP-SCF ITERATION   1:   2.7709e-02 (   0.3 sec   0/ 12 done)
     CP-SCF ITERATION   2:   8.4793e-03 (   0.3 sec   0/ 12 done)
     CP-SCF ITERATION   3:   2.8403e-03 (   0.3 sec   0/ 12 done)
     CP-SCF ITERATION   4:   5.0406e-04 (   0.3 sec   2/ 12 done)
     CP-SCF ITERATION   5:   1.0104e-04 (   0.3 sec  11/ 12 done)
     CP-SCF ITERATION   6:   2.3037e-05 (   0.3 sec  12/ 12 done)
                    *** THE CP-SCF HAS CONVERGED ***

                                                 ... done   (      2.3 sec)
Forming perturbed density Hessian contributions  ... done   (      0.0 sec)
2nd integral derivative contribs (SHARK-RI)      ... done   (      0.8 sec)
Exchange-correlation Hessian                     ... done   (      0.3 sec)
Dispersion correction in the Hessian             ... done   (      0.1 sec)
Dipole derivatives                               ... (center of mass:  0.000025,  0.000000 -0.156510)done   (      0.1 sec)

Total SCF Hessian time: 0 days 0 hours 0 min 6 sec 

Writing the Hessian file to the disk             ... done


Maximum memory used throughout the entire SCFHESS-calculation: 109.1 MB

-----------------------
VIBRATIONAL FREQUENCIES
-----------------------

Scaling factor for frequencies =  1.000000000  (already applied!)

   0:         0.00 cm**-1
   1:         0.00 cm**-1
   2:         0.00 cm**-1
   3:         0.00 cm**-1
   4:         0.00 cm**-1
   5:         0.00 cm**-1
   6:      1225.06 cm**-1
   7:      1407.59 cm**-1
   8:      1410.44 cm**-1
   9:      3065.01 cm**-1
  10:      3147.41 cm**-1
  11:      3147.53 cm**-1


------------
NORMAL MODES
------------

These modes are the Cartesian displacements weighted by the diagonal matrix
M(i,i)=1/sqrt(m[i]) where m[i] is the mass of the displaced atom
Thus, these vectors are normalized but *not* orthogonal

                  0          1          2          3          4          5    
      0       0.000000   0.000000   0.000000   0.000000   0.000000   0.000000
      1       0.000000   0.000000   0.000000   0.000000   0.000000   0.000000
      2       0.000000   0.000000   0.000000   0.000000   0.000000   0.000000
      3       0.000000   0.000000   0.000000   0.000000   0.000000   0.000000
      4       0.000000   0.000000   0.000000   0.000000   0.000000   0.000000
      5       0.000000   0.000000   0.000000   0.000000   0.000000   0.000000
      6       0.000000   0.000000   0.000000   0.000000   0.000000   0.000000
      7       0.000000   0.000000   0.000000   0.000000   0.000000   0.000000
      8       0.000000   0.000000   0.000000   0.000000   0.000000   0.000000
      9       0.000000   0.000000   0.000000   0.000000   0.000000   0.000000
     10       0.000000   0.000000   0.000000   0.000000   0.000000   0.000000
     11       0.000000   0.000000   0.000000   0.000000   0.000000   0.000000
                  6          7          8          9         10         11    
      0       0.000227  -0.000001   0.076925   0.000247   0.000146   0.090323
      1       0.000000   0.076906   0.000001   0.000000   0.090342  -0.000146
      2      -0.132803   0.000000   0.000317   0.046246  -0.000000  -0.000103
      3       0.222056  -0.000003   0.145265   0.544652  -0.001223  -0.753611
      4      -0.000001  -0.756898  -0.000014  -0.000000   0.034302  -0.000056
      5       0.528280  -0.000005   0.260639  -0.182851   0.000500   0.307918
      6      -0.112383  -0.390918  -0.530949  -0.273795   0.340204  -0.161875
      7       0.191164  -0.079736  -0.391339   0.474374  -0.554849   0.340029
      8       0.527080   0.226744  -0.132207  -0.184101   0.266114  -0.153776
      9      -0.112382   0.390938  -0.530934  -0.273797  -0.340724  -0.160771
     10      -0.191164  -0.079750   0.391336  -0.474378  -0.555944  -0.338229
     11       0.527080  -0.226740  -0.132215  -0.184103  -0.266609  -0.152912


-----------
IR SPECTRUM
-----------

 Mode   freq       eps      Int      T**2         TX        TY        TZ
       cm**-1   L/(mol*cm) km/mol    a.u.
----------------------------------------------------------------------------
  6:   1225.06   0.002560   12.94  0.000652  ( 0.000097 -0.000000  0.025536)
  7:   1407.59   0.000735    3.72  0.000163  ( 0.000000 -0.012766 -0.000000)
  8:   1410.44   0.000722    3.65  0.000160  (-0.012636 -0.000000 -0.000173)
  9:   3065.01   0.000017    0.09  0.000002  ( 0.000050  0.000000  0.001321)
 10:   3147.41   0.005527   27.93  0.000548  ( 0.000037  0.023408  0.000000)
 11:   3147.53   0.005396   27.27  0.000535  ( 0.023129 -0.000038  0.000001)

* The epsilon (eps) is given for a Dirac delta lineshape.
** The dipole moment derivative (T) already includes vibrational overlap.

The first frequency considered to be a vibration is 6
The total number of vibrations considered is 6


--------------------------
THERMOCHEMISTRY AT 298.15K
--------------------------

Temperature         ... 298.15 K
Pressure            ... 1.00 atm
Total Mass          ... 15.03 AMU

Throughout the following assumptions are being made:
  (1) The electronic state is orbitally nondegenerate
      but the spin degeneracy is treated
  (2) There are no thermally accessible electronically excited states
  (3) Hindered rotations indicated by low frequency modes are not
      treated as such but are treated as vibrations and this may
      cause some error
  (4) All equations used are the standard statistical mechanics
      equations for an ideal gas
  (5) All vibrations are strictly harmonic

freq.    1225.06  E(vib)   ...       0.01 
freq.    1407.59  E(vib)   ...       0.00 
freq.    1410.44  E(vib)   ...       0.00 
freq.    3065.01  E(vib)   ...       0.00 
freq.    3147.41  E(vib)   ...       0.00 
freq.    3147.53  E(vib)   ...       0.00 

------------
INNER ENERGY
------------

The inner energy is: U= E(el) + E(ZPE) + E(vib) + E(rot) + E(trans)
    E(el)   - is the total energy from the electronic structure calculation
              = E(kin-el) + E(nuc-el) + E(el-el) + E(nuc-nuc)
    E(ZPE)  - the the zero temperature vibrational energy from the frequency calculation
    E(vib)  - the the finite temperature correction to E(ZPE) due to population
              of excited vibrational states
    E(rot)  - is the rotational thermal energy
    E(trans)- is the translational thermal energy

Summary of contributions to the inner energy U:
Electronic energy                ...    -39.82122469 Eh
Zero point energy                ...      0.03053438 Eh      19.16 kcal/mol
Thermal vibrational correction   ...      0.00002950 Eh       0.02 kcal/mol
Thermal rotational correction    ...      0.00141627 Eh       0.89 kcal/mol
Thermal translational correction ...      0.00141627 Eh       0.89 kcal/mol
-----------------------------------------------------------------------
Total thermal energy                    -39.78782828 Eh


Summary of corrections to the electronic energy:
(perhaps to be used in another calculation)
Total thermal correction                  0.00286204 Eh       1.80 kcal/mol
Non-thermal (ZPE) correction              0.03053438 Eh      19.16 kcal/mol
-----------------------------------------------------------------------
Total correction                          0.03339642 Eh      20.96 kcal/mol


--------
ENTHALPY
--------

The enthalpy is H = U + kB*T
                kB is Boltzmann's constant
Total free energy                 ...    -39.78782828 Eh 
Thermal Enthalpy correction       ...      0.00094421 Eh       0.59 kcal/mol
-----------------------------------------------------------------------
Total Enthalpy                    ...    -39.78688407 Eh


Note: Rotational entropy computed according to Herzberg 
Infrared and Raman Spectra, Chapter V,1, Van Nostrand Reinhold, 1945 
Point Group:  C3v, Symmetry Number:   3  
Rotational constants in cm-1:     8.545364     8.544865     5.526411 

Vibrational entropy computed according to the QRRHO of S. Grimme
Chem.Eur.J. 2012 18 9955


-------
ENTROPY
-------

The entropy contributions are T*S = T*(S(el)+S(vib)+S(rot)+S(trans))
     S(el)   - electronic entropy
     S(vib)  - vibrational entropy
     S(rot)  - rotational entropy
     S(trans)- translational entropy
The entropies will be listed as multiplied by the temperature to get
units of energy

Electronic entropy                ...      0.00065446 Eh      0.41 kcal/mol
Vibrational entropy               ...      0.00003417 Eh      0.02 kcal/mol
Rotational entropy                ...      0.00564086 Eh      3.54 kcal/mol
Translational entropy             ...      0.01618771 Eh     10.16 kcal/mol
-----------------------------------------------------------------------
Final entropy term                ...      0.02251719 Eh     14.13 kcal/mol

In case the symmetry of your molecule has not been determined correctly
or in case you have a reason to use a different symmetry number we print 
out the resulting rotational entropy values for sn=1,12 :
 --------------------------------------------------------
|  sn= 1 | S(rot)=       0.00667815 Eh      4.19 kcal/mol|
|  sn= 2 | S(rot)=       0.00602369 Eh      3.78 kcal/mol|
|  sn= 3 | S(rot)=       0.00564086 Eh      3.54 kcal/mol|
|  sn= 4 | S(rot)=       0.00536923 Eh      3.37 kcal/mol|
|  sn= 5 | S(rot)=       0.00515854 Eh      3.24 kcal/mol|
|  sn= 6 | S(rot)=       0.00498640 Eh      3.13 kcal/mol|
|  sn= 7 | S(rot)=       0.00484085 Eh      3.04 kcal/mol|
|  sn= 8 | S(rot)=       0.00471478 Eh      2.96 kcal/mol|
|  sn= 9 | S(rot)=       0.00460357 Eh      2.89 kcal/mol|
|  sn=10 | S(rot)=       0.00450409 Eh      2.83 kcal/mol|
|  sn=11 | S(rot)=       0.00441410 Eh      2.77 kcal/mol|
|  sn=12 | S(rot)=       0.00433194 Eh      2.72 kcal/mol|
 --------------------------------------------------------


-------------------
GIBBS FREE ENERGY
-------------------

The Gibbs free energy is G = H - T*S

Total enthalpy                    ...    -39.78688407 Eh 
Total entropy correction          ...     -0.02251719 Eh    -14.13 kcal/mol
-----------------------------------------------------------------------
Final Gibbs free energy         ...    -39.80940126 Eh

For completeness - the Gibbs free energy minus the electronic energy
G-E(el)                           ...      0.01182343 Eh      7.42 kcal/mol


Timings for individual modules:

Sum of individual times         ...       48.175 sec (=   0.803 min)
GTO integral calculation        ...        8.548 sec (=   0.142 min)  17.7 %
SCF iterations                  ...       24.780 sec (=   0.413 min)  51.4 %
SCF Gradient evaluation         ...        6.020 sec (=   0.100 min)  12.5 %
Geometry relaxation             ...        0.127 sec (=   0.002 min)   0.3 %
Analytical frequency calculation...        8.699 sec (=   0.145 min)  18.1 %
                             ****ORCA TERMINATED NORMALLY****
TOTAL RUN TIME: 0 days 0 hours 0 minutes 55 seconds 320 msec

slurmID:    32260102
totalRuntime[s]:    55.371395251
