
                                 *****************
                                 * O   R   C   A *
                                 *****************

                                            #,                                       
                                            ###                                      
                                            ####                                     
                                            #####                                    
                                            ######                                   
                                           ########,                                 
                                     ,,################,,,,,                         
                               ,,#################################,,                 
                          ,,##########################################,,             
                       ,#########################################, ''#####,          
                    ,#############################################,,   '####,        
                  ,##################################################,,,,####,       
                ,###########''''           ''''###############################       
              ,#####''   ,,,,##########,,,,          '''####'''          '####       
            ,##' ,,,,###########################,,,                        '##       
           ' ,,###''''                  '''############,,,                           
         ,,##''                                '''############,,,,        ,,,,,,###''
      ,#''                                            '''#######################'''  
     '                                                          ''''####''''         
             ,#######,   #######,   ,#######,      ##                                
            ,#'     '#,  ##    ##  ,#'     '#,    #''#        ######   ,####,        
            ##       ##  ##   ,#'  ##            #'  '#       #        #'  '#        
            ##       ##  #######   ##           ,######,      #####,   #    #        
            '#,     ,#'  ##    ##  '#,     ,#' ,#      #,         ##   #,  ,#        
             '#######'   ##     ##  '#######'  #'      '#     #####' # '####'        



                  #######################################################
                  #                        -***-                        #
                  #          Department of theory and spectroscopy      #
                  #    Directorship and core code : Frank Neese         #
                  #        Max Planck Institute fuer Kohlenforschung    #
                  #                Kaiser Wilhelm Platz 1               #
                  #                 D-45470 Muelheim/Ruhr               #
                  #                      Germany                        #
                  #                                                     #
                  #                  All rights reserved                #
                  #                        -***-                        #
                  #######################################################


                         Program Version 5.0.4 -  RELEASE  -


 With contributions from (in alphabetic order):
   Daniel Aravena         : Magnetic Suceptibility
   Michael Atanasov       : Ab Initio Ligand Field Theory (pilot matlab implementation)
   Alexander A. Auer      : GIAO ZORA, VPT2 properties, NMR spectrum
   Ute Becker             : Parallelization
   Giovanni Bistoni       : ED, misc. LED, open-shell LED, HFLD
   Martin Brehm           : Molecular dynamics
   Dmytro Bykov           : SCF Hessian
   Vijay G. Chilkuri      : MRCI spin determinant printing, contributions to CSF-ICE
   Dipayan Datta          : RHF DLPNO-CCSD density
   Achintya Kumar Dutta   : EOM-CC, STEOM-CC
   Dmitry Ganyushin       : Spin-Orbit,Spin-Spin,Magnetic field MRCI
   Miquel Garcia          : C-PCM and meta-GGA Hessian, CC/C-PCM, Gaussian charge scheme
   Yang Guo               : DLPNO-NEVPT2, F12-NEVPT2, CIM, IAO-localization
   Andreas Hansen         : Spin unrestricted coupled pair/coupled cluster methods
   Benjamin Helmich-Paris : MC-RPA, TRAH-SCF, COSX integrals
   Lee Huntington         : MR-EOM, pCC
   Robert Izsak           : Overlap fitted RIJCOSX, COSX-SCS-MP3, EOM
   Marcus Kettner         : VPT2
   Christian Kollmar      : KDIIS, OOCD, Brueckner-CCSD(T), CCSD density, CASPT2, CASPT2-K
   Simone Kossmann        : Meta GGA functionals, TD-DFT gradient, OOMP2, MP2 Hessian
   Martin Krupicka        : Initial AUTO-CI
   Lucas Lang             : DCDCAS
   Marvin Lechner         : AUTO-CI (C++ implementation), FIC-MRCC
   Dagmar Lenk            : GEPOL surface, SMD
   Dimitrios Liakos       : Extrapolation schemes; Compound Job, initial MDCI parallelization
   Dimitrios Manganas     : Further ROCIS development; embedding schemes
   Dimitrios Pantazis     : SARC Basis sets
   Anastasios Papadopoulos: AUTO-CI, single reference methods and gradients
   Taras Petrenko         : DFT Hessian,TD-DFT gradient, ASA, ECA, R-Raman, ABS, FL, XAS/XES, NRVS
   Peter Pinski           : DLPNO-MP2, DLPNO-MP2 Gradient
   Christoph Reimann      : Effective Core Potentials
   Marius Retegan         : Local ZFS, SOC
   Christoph Riplinger    : Optimizer, TS searches, QM/MM, DLPNO-CCSD(T), (RO)-DLPNO pert. Triples
   Tobias Risthaus        : Range-separated hybrids, TD-DFT gradient, RPA, STAB
   Michael Roemelt        : Original ROCIS implementation
   Masaaki Saitow         : Open-shell DLPNO-CCSD energy and density
   Barbara Sandhoefer     : DKH picture change effects
   Avijit Sen             : IP-ROCIS
   Kantharuban Sivalingam : CASSCF convergence, NEVPT2, FIC-MRCI
   Bernardo de Souza      : ESD, SOC TD-DFT
   Georgi Stoychev        : AutoAux, RI-MP2 NMR, DLPNO-MP2 response
   Willem Van den Heuvel  : Paramagnetic NMR
   Boris Wezisla          : Elementary symmetry handling
   Frank Wennmohs         : Technical directorship


 We gratefully acknowledge several colleagues who have allowed us to
 interface, adapt or use parts of their codes:
   Stefan Grimme, W. Hujo, H. Kruse, P. Pracht,  : VdW corrections, initial TS optimization,
                  C. Bannwarth, S. Ehlert          DFT functionals, gCP, sTDA/sTD-DF
   Ed Valeev, F. Pavosevic, A. Kumar             : LibInt (2-el integral package), F12 methods
   Garnet Chan, S. Sharma, J. Yang, R. Olivares  : DMRG
   Ulf Ekstrom                                   : XCFun DFT Library
   Mihaly Kallay                                 : mrcc  (arbitrary order and MRCC methods)
   Jiri Pittner, Ondrej Demel                    : Mk-CCSD
   Frank Weinhold                                : gennbo (NPA and NBO analysis)
   Christopher J. Cramer and Donald G. Truhlar   : smd solvation model
   Lars Goerigk                                  : TD-DFT with DH, B97 family of functionals
   V. Asgeirsson, H. Jonsson                     : NEB implementation
   FAccTs GmbH                                   : IRC, NEB, NEB-TS, DLPNO-Multilevel, CI-OPT
                                                   MM, QMMM, 2- and 3-layer-ONIOM, Crystal-QMMM,
                                                   LR-CPCM, SF, NACMEs, symmetry and pop. for TD-DFT,
                                                   nearIR, NL-DFT gradient (VV10), updates on ESD,
                                                   ML-optimized integration grids
   S Lehtola, MJT Oliveira, MAL Marques          : LibXC Library
   Liviu Ungur et al                             : ANISO software


 Your calculation uses the libint2 library for the computation of 2-el integrals
 For citations please refer to: http://libint.valeyev.net

 Your ORCA version has been built with support for libXC version: 5.1.0
 For citations please refer to: https://tddft.org/programs/libxc/

 This ORCA versions uses:
   CBLAS   interface :  Fast vector & matrix operations
   LAPACKE interface :  Fast linear algebra routines
   SCALAPACK package :  Parallel linear algebra routines
   Shared memory     :  Shared parallel matrices
   BLAS/LAPACK       :  OpenBLAS 0.3.15  USE64BITINT DYNAMIC_ARCH NO_AFFINITY SkylakeX SINGLE_THREADED
        Core in use  :  SkylakeX
   Copyright (c) 2011-2014, The OpenBLAS Project


Your calculation utilizes the atom-pairwise dispersion correction
with the zero-damping scheme (D30)
Cite in your paper:
S.Grimme, J.Antony, S.Ehrlich and H.Krieg, J.Chem.Phys., 132, (2010), 154104 
   

XCFun DFT library Copyright 2009-2010 Ulf Ekstrom and contributors.
See http://admol.org/xcfun for more information.
This is free software; see the source code for copying conditions.
There is ABSOLUTELY NO WARRANTY; not even for MERCHANTABILITY or FITNESS FOR A PARTICULAR PURPOSE.
For details see the documentation.
Scientific users of this library should cite U. Ekstrom, L. Visscher, R. Bast, A. J. Thorvaldsen and K. Ruud;
J.Chem.Theor.Comp. 2010, DOI: 10.1021/ct100117s
XCFun Version 0.99 

================================================================================

----- Orbital basis set information -----
Your calculation utilizes the basis: def2-TZVPD
   F. Weigend and R. Ahlrichs, Phys. Chem. Chem. Phys. 7, 3297 (2005).
   D. Rappoport and F. Furche, J. Chem. Phys. 133 134105 (2010).

----- AuxJ basis set information -----
Your calculation utilizes the auxiliary basis: def2/J
   F. Weigend, Phys. Chem. Chem. Phys. 8, 1057 (2006).

================================================================================
                                        WARNINGS
                       Please study these warnings very carefully!
================================================================================


WARNING: Geometry Optimization
  ===> : Switching off AutoStart
         For restart on a previous wavefunction, please use MOREAD

INFO   : the flag for use of the SHARK integral package has been found!

================================================================================
                                       INPUT FILE
================================================================================
NAME = /beegfs/scratch/ispackman/PFAS_EPR_calcs/benchmark/JChemEd_CF3_radical/CH3_radical_99.5_degrees_IN-PROGRESS/CH3_radical_99.5_degrees.inp
|  1> ! UKS TightSCF wB97x-D3 def2-TZVPD xyzfile opt freq
|  2> 
|  3> # CH3 radical 99.5 degrees fixed
|  4> 
|  5> %maxcore 1000
|  6> %pal
|  7> nprocs 18
|  8> end
|  9> 
| 10> %geom Constraints
| 11>         { A * 0 * C }
| 12>     end
| 13> end
| 14> * xyz 0 2
| 15> C 0.00 0.00 0.00
| 16> H 0.9518093393 0.0000000000 -0.5103518215
| 17> H -0.4759046696 0.8242910674 -0.5103518215
| 18> H -0.4759046696 -0.8242910674 -0.5103518215
| 19> **                         ****END OF INPUT****
================================================================================

                       *****************************
                       * Geometry Optimization Run *
                       *****************************

Geometry optimization settings:
Update method            Update   .... BFGS
Choice of coordinates    CoordSys .... Z-matrix Internals
Initial Hessian          InHess   .... Almoef's Model

Convergence Tolerances:
Energy Change            TolE     ....  5.0000e-06 Eh
Max. Gradient            TolMAXG  ....  3.0000e-04 Eh/bohr
RMS Gradient             TolRMSG  ....  1.0000e-04 Eh/bohr
Max. Displacement        TolMAXD  ....  4.0000e-03 bohr
RMS Displacement         TolRMSD  ....  2.0000e-03 bohr
Strict Convergence                ....  False
------------------------------------------------------------------------------
                        ORCA OPTIMIZATION COORDINATE SETUP
------------------------------------------------------------------------------

The optimization will be done in new redundant internal coordinates
Making redundant internal coordinates   ...  (new redundants) done
Evaluating the initial hessian          ...  (Almloef) done
Evaluating the coordinates              ...  done
Calculating the B-matrix                .... done
Calculating the G-matrix                .... done
Diagonalizing the G-matrix              .... done
Imposing constraints:
 Iter   0:  RMS(Cart)=    0.0000000000 RMS(Int)=    0.0000000000
CONVERGED
Will constrain atom 0 coordinate 1 
Will constrain atom 0 coordinate 2 
Will constrain atom 1 coordinate 2 
The first mode is                       ....    1
The number of degrees of freedom        ....    6
Storing new coordinates                 .... done

    -----------------------------------------------------------------
                    Redundant Internal Coordinates


    -----------------------------------------------------------------
         Definition                    Initial Value    Approx d2E/dq
    -----------------------------------------------------------------
      1. B(H   1,C   0)                  1.0800         0.373575   
      2. B(H   2,C   0)                  1.0800         0.373575   
      3. B(H   3,C   0)                  1.0800         0.373575   
      4. A(H   2,C   0,H   3)           99.5000         0.294224 C 
      5. A(H   1,C   0,H   2)           99.5000         0.294224 C 
      6. A(H   1,C   0,H   3)           99.5000         0.294224 C 
      7. I(H   1,H   3,H   2,C   0)     75.2002         0.002587   
    -----------------------------------------------------------------

Number of atoms                         .... 4
Number of degrees of freedom            .... 7

         *************************************************************
         *                GEOMETRY OPTIMIZATION CYCLE   1            *
         *************************************************************
---------------------------------
CARTESIAN COORDINATES (ANGSTROEM)
---------------------------------
  C      0.000000    0.000000    0.000000
  H      0.951809    0.000000   -0.510352
  H     -0.475905    0.824291   -0.510352
  H     -0.475905   -0.824291   -0.510352

----------------------------
CARTESIAN COORDINATES (A.U.)
----------------------------
  NO LB      ZA    FRAG     MASS         X           Y           Z
   0 C     6.0000    0    12.011    0.000000    0.000000    0.000000
   1 H     1.0000    0     1.008    1.798659    0.000000   -0.964425
   2 H     1.0000    0     1.008   -0.899329    1.557684   -0.964425
   3 H     1.0000    0     1.008   -0.899329   -1.557684   -0.964425

--------------------------------
INTERNAL COORDINATES (ANGSTROEM)
--------------------------------
 C      0   0   0     0.000000000000     0.00000000     0.00000000
 H      1   0   0     1.080000000040     0.00000000     0.00000000
 H      1   2   0     1.080000000024    99.50000000     0.00000000
 H      1   2   3     1.080000000024    99.50000000   101.40091958

---------------------------
INTERNAL COORDINATES (A.U.)
---------------------------
 C      0   0   0     0.000000000000     0.00000000     0.00000000
 H      1   0   0     2.040904224711     0.00000000     0.00000000
 H      1   2   0     2.040904224679    99.50000000     0.00000000
 H      1   2   3     2.040904224679    99.50000000   101.40091958

---------------------
BASIS SET INFORMATION
---------------------
There are 2 groups of distinct atoms

 Group   1 Type C   : 12s6p3d1f contracted to 6s3p3d1f pattern {621111/411/111/1}
 Group   2 Type H   : 5s2p contracted to 3s2p pattern {311/11}

Atom   0C    basis set group =>   1
Atom   1H    basis set group =>   2
Atom   2H    basis set group =>   2
Atom   3H    basis set group =>   2
---------------------------------
AUXILIARY/J BASIS SET INFORMATION
---------------------------------
There are 2 groups of distinct atoms

 Group   1 Type C   : 12s5p4d2f1g contracted to 6s4p3d1f1g pattern {711111/2111/211/2/1}
 Group   2 Type H   : 5s2p1d contracted to 3s1p1d pattern {311/2/1}

Atom   0C    basis set group =>   1
Atom   1H    basis set group =>   2
Atom   2H    basis set group =>   2
Atom   3H    basis set group =>   2


           ************************************************************
           *        Program running with 18 parallel MPI-processes    *
           *              working on a common directory               *
           ************************************************************
------------------------------------------------------------------------------
                           ORCA GTO INTEGRAL CALCULATION
                           -- RI-GTO INTEGRALS CHOSEN --
------------------------------------------------------------------------------
------------------------------------------------------------------------------
                   ___                                                        
                  /   \      - P O W E R E D   B Y -                         
                 /     \                                                     
                 |  |  |   _    _      __       _____    __    __             
                 |  |  |  | |  | |    /  \     |  _  \  |  |  /  |          
                  \  \/   | |  | |   /    \    | | | |  |  | /  /          
                 / \  \   | |__| |  /  /\  \   | |_| |  |  |/  /          
                |  |  |   |  __  | /  /__\  \  |    /   |      \           
                |  |  |   | |  | | |   __   |  |    \   |  |\   \          
                \     /   | |  | | |  |  |  |  | |\  \  |  | \   \       
                 \___/    |_|  |_| |__|  |__|  |_| \__\ |__|  \__/        
                                                                              
                      - O R C A' S   B I G   F R I E N D -                    
                                      &                                       
                       - I N T E G R A L  F E E D E R -                       
                                                                              
 v1 FN, 2020, v2 2021                                                         
------------------------------------------------------------------------------


Reading SHARK input file /beegfs/scratch/ispackman/PFAS_EPR_calcs/benchmark/JChemEd_CF3_radical/CH3_radical_99.5_degrees_IN-PROGRESS/CH3_radical_99.5_degrees.SHARKINP.tmp ... ok
----------------------
SHARK INTEGRAL PACKAGE
----------------------

Number of atoms                             ...      4
Number of basis functions                   ...     64
Number of shells                            ...     28
Maximum angular momentum                    ...      3
Integral batch strategy                     ... SHARK/LIBINT Hybrid
RI-J (if used) integral strategy            ... SPLIT-RIJ (Revised 2003 algorithm where possible)
Printlevel                                  ...      1
Contraction scheme used                     ... SEGMENTED contraction
Coulomb Range Separation                    ... NOT USED
Exchange Range Separation                   ... Long Range
   Mu parameter                             ...  0.250000
   Scaling (regular/separated)              ...  0.195728  0.804272
Finite Nucleus Model                        ... NOT USED
Auxiliary Coulomb fitting basis             ... AVAILABLE
   # of basis functions in Aux-J            ...     82
   # of shells in Aux-J                     ...     30
   Maximum angular momentum in Aux-J        ...      4
Auxiliary J/K fitting basis                 ... NOT available
Auxiliary Correlation fitting basis         ... NOT available
Auxiliary 'external' fitting basis          ... NOT available
Integral threshold                          ...     2.500000e-11
Primitive cut-off                           ...     2.500000e-12
Primitive pair pre-selection threshold      ...     2.500000e-12

Calculating pre-screening integrals         ... done (  0.0 sec) Dimension = 28
Organizing shell pair data                  ... done (  0.0 sec)
Shell pair information
Total number of shell pairs                 ...       406
Shell pairs after pre-screening             ...       406
Total number of primitive shell pairs       ...       977
Primitive shell pairs kept                  ...       947
          la=0 lb=0:    120 shell pairs
          la=1 lb=0:    135 shell pairs
          la=1 lb=1:     45 shell pairs
          la=2 lb=0:     45 shell pairs
          la=2 lb=1:     27 shell pairs
          la=2 lb=2:      6 shell pairs
          la=3 lb=0:     15 shell pairs
          la=3 lb=1:      9 shell pairs
          la=3 lb=2:      3 shell pairs
          la=3 lb=3:      1 shell pairs

Calculating one electron integrals          ... done (  0.0 sec)
Calculating RI/J V-Matrix + Cholesky decomp.... done (  0.0 sec)
Calculating Nuclear repulsion               ... done (  0.0 sec) ENN=      9.782588006922 Eh

SHARK setup successfully completed in   0.3 seconds

Maximum memory used throughout the entire GTOINT-calculation: 14.0 MB


           ************************************************************
           *        Program running with 18 parallel MPI-processes    *
           *              working on a common directory               *
           ************************************************************
-------------------------------------------------------------------------------
                                 ORCA SCF
-------------------------------------------------------------------------------

------------
SCF SETTINGS
------------
Hamiltonian:
 Density Functional     Method          .... DFT(GTOs)
 Exchange Functional    Exchange        .... WB97X-D3
 Correlation Functional Correlation     .... WB97X-D3
 Gradients option       PostSCFGGA      .... off
 Hybrid DFT is turned on
   Fraction HF Exchange ScalHFX         ....  0.195728
   Scaling of DF-GGA-X  ScalDFX         ....  0.000000
   Scaling of DF-GGA-C  ScalDFC         ....  1.000000
   Scaling of DF-LDA-C  ScalLDAC        ....  1.000000
   Perturbative correction              ....  0.000000
   Density functional embedding theory  .... OFF
 Long-range corrected/Screened/Range-Separated Hybrid DFT is turned on
   Amount of maximum screened exact exchange              ....  0.804272
   Range separation parameter mu (erf(mu*r12)/r12)        ....  0.250000
 RI-approximation to the Coulomb term is turned on
   Number of AuxJ basis functions       .... 82
   RIJ-COSX (HFX calculated with COS-X)).... on


General Settings:
 Integral files         IntName         .... /beegfs/scratch/ispackman/PFAS_EPR_calcs/benchmark/JChemEd_CF3_radical/CH3_radical_99.5_degrees_IN-PROGRESS/CH3_radical_99.5_degrees
 Hartree-Fock type      HFTyp           .... UHF
 Total Charge           Charge          ....    0
 Multiplicity           Mult            ....    2
 Number of Electrons    NEL             ....    9
 Basis Dimension        Dim             ....   64
 Nuclear Repulsion      ENuc            ....      9.7825880069 Eh

Convergence Acceleration:
 DIIS                   CNVDIIS         .... on
   Start iteration      DIISMaxIt       ....    12
   Startup error        DIISStart       ....  0.200000
   # of expansion vecs  DIISMaxEq       ....     5
   Bias factor          DIISBfac        ....   1.050
   Max. coefficient     DIISMaxC        ....  10.000
 Trust-Rad. Augm. Hess. CNVTRAH         .... auto
   Auto Start mean grad. ratio tolernc. ....  1.125000
   Auto Start start iteration           ....    20
   Auto Start num. interpolation iter.  ....    10
   Max. Number of Micro iterations      ....    16
   Max. Number of Macro iterations      .... Maxiter - #DIIS iter
   Number of Davidson start vectors     ....     2
   Converg. threshold I  (grad. norm)   ....   1.000e-05
   Converg. threshold II (energy diff.) ....   1.000e-08
   Grad. Scal. Fac. for Micro threshold ....   0.100
   Minimum threshold for Micro iter.    ....   0.010
   NR start threshold (gradient norm)   ....   0.001
   Initial trust radius                 ....   0.400
   Minimum AH scaling param. (alpha)    ....   1.000
   Maximum AH scaling param. (alpha)    .... 1000.000
   Orbital update algorithm             .... Taylor
   White noise on init. David. guess    .... on
   Maximum white noise                  ....   0.010
   Quad. conv. algorithm                .... NR
 SOSCF                  CNVSOSCF        .... off
 Level Shifting         CNVShift        .... on
   Level shift para.    LevelShift      ....    0.2500
   Turn off err/grad.   ShiftErr        ....    0.0010
 Zerner damping         CNVZerner       .... off
 Static damping         CNVDamp         .... on
   Fraction old density DampFac         ....    0.7000
   Max. Damping (<1)    DampMax         ....    0.9800
   Min. Damping (>=0)   DampMin         ....    0.0000
   Turn off err/grad.   DampErr         ....    0.1000
 Fernandez-Rico         CNVRico         .... off

SCF Procedure:
 Maximum # iterations   MaxIter         ....   125
 SCF integral mode      SCFMode         .... Direct
   Integral package                     .... SHARK and LIBINT hybrid scheme
 Reset frequency        DirectResetFreq ....    20
 Integral Threshold     Thresh          ....  2.500e-11 Eh
 Primitive CutOff       TCut            ....  2.500e-12 Eh

Convergence Tolerance:
 Convergence Check Mode ConvCheckMode   .... Total+1el-Energy
 Convergence forced     ConvForced      .... 0
 Energy Change          TolE            ....  1.000e-08 Eh
 1-El. energy change                    ....  1.000e-05 Eh
 DIIS Error             TolErr          ....  5.000e-07


Diagonalization of the overlap matrix:
Smallest eigenvalue                        ... 3.870e-05
Time for diagonalization                   ...    0.002 sec
Threshold for overlap eigenvalues          ... 1.000e-08
Number of eigenvalues below threshold      ... 0
Time for construction of square roots      ...    0.015 sec
Total time needed                          ...    0.018 sec

Time for model grid setup =    0.034 sec

------------------------------
INITIAL GUESS: MODEL POTENTIAL
------------------------------
Loading Hartree-Fock densities                     ... done
Calculating cut-offs                               ... done
Initializing the effective Hamiltonian             ... done
Setting up the integral package (SHARK)            ... done
Starting the Coulomb interaction                   ... done (   0.1 sec)
Reading the grid                                   ... done
Mapping shells                                     ... done
Starting the XC term evaluation                    ... done (   0.0 sec)
  promolecular density results
     # of electrons  =      8.997922995
     EX              =     -5.937062930
     EC              =     -0.260425701
     EX+EC           =     -6.197488630
Transforming the Hamiltonian                       ... done (   0.0 sec)
Diagonalizing the Hamiltonian                      ... done (   0.0 sec)
Back transforming the eigenvectors                 ... done (   0.0 sec)
Now organizing SCF variables                       ... done
                      ------------------
                      INITIAL GUESS DONE (   0.1 sec)
                      ------------------
-------------------
DFT GRID GENERATION
-------------------

General Integration Accuracy     IntAcc      ... 4.388
Radial Grid Type                 RadialGrid  ... OptM3 with GC (2021)
Angular Grid (max. ang.)         AngularGrid ... 4 (Lebedev-302)
Angular grid pruning method      GridPruning ... 4 (adaptive)
Weight generation scheme         WeightScheme... Becke
Basis function cutoff            BFCut       ... 1.0000e-11
Integration weight cutoff        WCut        ... 1.0000e-14
Angular grids for H and He will be reduced by one unit
Partially contracted basis set               ... off
Rotationally invariant grid construction     ... off

Total number of grid points                  ...    17036
Total number of batches                      ...      267
Average number of points per batch           ...       63
Average number of grid points per atom       ...     4259
Time for grid setup =    0.092 sec

--------------------
COSX GRID GENERATION
--------------------

GRIDX 1
-------
General Integration Accuracy     IntAcc      ... 3.816
Radial Grid Type                 RadialGrid  ... OptM3 with GC (2021)
Angular Grid (max. ang.)         AngularGrid ... 1 (Lebedev-50)
Angular grid pruning method      GridPruning ... 4 (adaptive)
Weight generation scheme         WeightScheme... Becke
Basis function cutoff            BFCut       ... 1.0000e-11
Integration weight cutoff        WCut        ... 1.0000e-14
Angular grids for H and He will be reduced by one unit
Partially contracted basis set               ... on
Rotationally invariant grid construction     ... off

Total number of grid points                  ...     2145
Total number of batches                      ...       36
Average number of points per batch           ...       59
Average number of grid points per atom       ...      536
UseSFitting                                  ... on

GRIDX 2
-------
General Integration Accuracy     IntAcc      ... 4.020
Radial Grid Type                 RadialGrid  ... OptM3 with GC (2021)
Angular Grid (max. ang.)         AngularGrid ... 2 (Lebedev-110)
Angular grid pruning method      GridPruning ... 4 (adaptive)
Weight generation scheme         WeightScheme... Becke
Basis function cutoff            BFCut       ... 1.0000e-11
Integration weight cutoff        WCut        ... 1.0000e-14
Angular grids for H and He will be reduced by one unit
Partially contracted basis set               ... on
Rotationally invariant grid construction     ... off

Total number of grid points                  ...     5044
Total number of batches                      ...       80
Average number of points per batch           ...       63
Average number of grid points per atom       ...     1261
UseSFitting                                  ... on

GRIDX 3
-------
General Integration Accuracy     IntAcc      ... 4.338
Radial Grid Type                 RadialGrid  ... OptM3 with GC (2021)
Angular Grid (max. ang.)         AngularGrid ... 3 (Lebedev-194)
Angular grid pruning method      GridPruning ... 4 (adaptive)
Weight generation scheme         WeightScheme... Becke
Basis function cutoff            BFCut       ... 1.0000e-11
Integration weight cutoff        WCut        ... 1.0000e-14
Angular grids for H and He will be reduced by one unit
Partially contracted basis set               ... on
Rotationally invariant grid construction     ... off

Total number of grid points                  ...    11716
Total number of batches                      ...      185
Average number of points per batch           ...       63
Average number of grid points per atom       ...     2929
UseSFitting                                  ... on

Time for X-Grid setup             =    0.261 sec

--------------
SCF ITERATIONS
--------------
ITER       Energy         Delta-E        Max-DP      RMS-DP      [F,P]     Damp
               ***  Starting incremental Fock matrix formation  ***
  0    -39.7700424113   0.000000000000 0.06764116  0.00126894  0.0757184 0.7000
  1    -39.7837472822  -0.013704870920 0.06178097  0.00111144  0.0486794 0.7000
                               ***Turning on DIIS***
  2    -39.7915403411  -0.007793058881 0.13078811  0.00240808  0.0282069 0.0000
  3    -39.8051580924  -0.013617751285 0.04314307  0.00078472  0.0191744 0.0000
  4    -39.8066708792  -0.001512786868 0.01416943  0.00024114  0.0032776 0.0000
  5    -39.8067374840  -0.000066604784 0.01263975  0.00020603  0.0016517 0.0000
  6    -39.8067600728  -0.000022588810 0.01346014  0.00021132  0.0006279 0.0000
               *** Restarting incremental Fock matrix formation ***
                                   *** Resetting DIIS ***
  7    -39.8067681764  -0.000008103568 0.00122470  0.00001922  0.0000839 0.0000
  8    -39.8067683310  -0.000000154563 0.00077606  0.00001221  0.0000400 0.0000
  9    -39.8067683790  -0.000000048002 0.00002368  0.00000082  0.0000167 0.0000
 10    -39.8067683816  -0.000000002651 0.00000952  0.00000031  0.0000065 0.0000
                 **** Energy Check signals convergence ****

               *****************************************************
               *                     SUCCESS                       *
               *           SCF CONVERGED AFTER  11 CYCLES          *
               *****************************************************

Old exchange energy                            =     -2.173332334 Eh
New exchange energy                            =     -2.173335278 Eh
Exchange energy change after final integration =     -0.000002944 Eh
Total energy after final integration           =    -39.806771326 Eh
Final COS-X integration done in                =     0.129 sec

----------------
TOTAL SCF ENERGY
----------------

Total Energy       :          -39.80677133 Eh           -1083.19732 eV

Components:
Nuclear Repulsion  :            9.78258801 Eh             266.19775 eV
Electronic Energy  :          -49.58935933 Eh           -1349.39507 eV
One Electron Energy:          -71.80156788 Eh           -1953.81999 eV
Two Electron Energy:           22.21220855 Eh             604.42492 eV
Max COSX asymmetry :            0.00000010 Eh               0.00000 eV

Virial components:
Potential Energy   :          -79.47390769 Eh           -2162.59497 eV
Kinetic Energy     :           39.66713637 Eh            1079.39766 eV
Virial Ratio       :            2.00352017


DFT components:
N(Alpha)           :        4.999997007321 electrons
N(Beta)            :        4.000000207815 electrons
N(Total)           :        8.999997215136 electrons
E(XC)              :       -4.316742354859 Eh       
DFET-embed. en.    :        0.000000000000 Eh       

---------------
SCF CONVERGENCE
---------------

  Last Energy change         ...   -2.4307e-10  Tolerance :   1.0000e-08
  Last MAX-Density change    ...    0.0000e+00  Tolerance :   1.0000e-07
  Last RMS-Density change    ...    0.0000e+00  Tolerance :   5.0000e-09
  Last DIIS Error            ...    1.2750e-06  Tolerance :   5.0000e-07

             **** THE GBW FILE WAS UPDATED (/beegfs/scratch/ispackman/PFAS_EPR_calcs/benchmark/JChemEd_CF3_radical/CH3_radical_99.5_degrees_IN-PROGRESS/CH3_radical_99.5_degrees.gbw) ****
             **** DENSITY /beegfs/scratch/ispackman/PFAS_EPR_calcs/benchmark/JChemEd_CF3_radical/CH3_radical_99.5_degrees_IN-PROGRESS/CH3_radical_99.5_degrees.scfp WAS UPDATED ****
             **** ENERGY FILE WAS UPDATED (/beegfs/scratch/ispackman/PFAS_EPR_calcs/benchmark/JChemEd_CF3_radical/CH3_radical_99.5_degrees_IN-PROGRESS/CH3_radical_99.5_degrees.en.tmp) ****
----------------------
UHF SPIN CONTAMINATION
----------------------

Warning: in a DFT calculation there is little theoretical justification to 
         calculate <S**2> as in Hartree-Fock theory. We will do it anyways
         but you should keep in mind that the values have only limited relevance

Expectation value of <S**2>     :     0.753047
Ideal value S*(S+1) for S=0.5   :     0.750000
Deviation                       :     0.003047

             **** THE GBW FILE WAS UPDATED (/beegfs/scratch/ispackman/PFAS_EPR_calcs/benchmark/JChemEd_CF3_radical/CH3_radical_99.5_degrees_IN-PROGRESS/CH3_radical_99.5_degrees.gbw) ****
             **** DENSITY /beegfs/scratch/ispackman/PFAS_EPR_calcs/benchmark/JChemEd_CF3_radical/CH3_radical_99.5_degrees_IN-PROGRESS/CH3_radical_99.5_degrees.scfp WAS UPDATED ****
----------------
ORBITAL ENERGIES
----------------
                 SPIN UP ORBITALS
  NO   OCC          E(Eh)            E(eV) 
   0   1.0000     -10.295138      -280.1450 
   1   1.0000      -0.821056       -22.3421 
   2   1.0000      -0.493768       -13.4361 
   3   1.0000      -0.493738       -13.4353 
   4   1.0000      -0.388096       -10.5606 
   5   0.0000       0.075058         2.0424 
   6   0.0000       0.161584         4.3969 
   7   0.0000       0.161591         4.3971 
   8   0.0000       0.175073         4.7640 
   9   0.0000       0.194035         5.2800 
  10   0.0000       0.194038         5.2801 
  11   0.0000       0.235414         6.4059 
  12   0.0000       0.253122         6.8878 
  13   0.0000       0.253127         6.8879 
  14   0.0000       0.315961         8.5977 
  15   0.0000       0.351487         9.5644 
  16   0.0000       0.351495         9.5647 
  17   0.0000       0.355343         9.6694 
  18   0.0000       0.379910        10.3379 
  19   0.0000       0.383443        10.4340 
  20   0.0000       0.383448        10.4342 
  21   0.0000       0.397374        10.8131 
  22   0.0000       0.397383        10.8134 
  23   0.0000       0.532715        14.4959 
  24   0.0000       0.561201        15.2711 
  25   0.0000       0.561210        15.2713 
  26   0.0000       0.639010        17.3883 
  27   0.0000       0.783986        21.3334 
  28   0.0000       0.789326        21.4786 
  29   0.0000       0.789333        21.4788 
  30   0.0000       0.868598        23.6358 
  31   0.0000       0.868610        23.6361 
  32   0.0000       0.970088        26.3974 
  33   0.0000       1.161691        31.6112 
  34   0.0000       1.161724        31.6121 
  35   0.0000       1.648119        44.8476 
  36   0.0000       1.742411        47.4134 
  37   0.0000       1.742486        47.4155 
  38   0.0000       1.773487        48.2590 
  39   0.0000       1.817625        49.4601 
  40   0.0000       1.939287        52.7707 
  41   0.0000       1.939323        52.7717 
  42   0.0000       2.201528        59.9066 
  43   0.0000       2.217222        60.3337 
  44   0.0000       2.217302        60.3359 
  45   0.0000       2.438661        66.3593 
  46   0.0000       2.646127        72.0048 
  47   0.0000       2.646173        72.0060 
  48   0.0000       2.723798        74.1183 
  49   0.0000       2.723899        74.1211 
  50   0.0000       2.805823        76.3503 
  51   0.0000       3.082264        83.8727 
  52   0.0000       3.155251        85.8587 
  53   0.0000       3.155336        85.8611 
  54   0.0000       3.293690        89.6259 
  55   0.0000       3.317730        90.2800 
  56   0.0000       3.317769        90.2811 
  57   0.0000       3.360030        91.4311 
  58   0.0000       3.722606       101.2973 
  59   0.0000       3.722659       101.2987 
  60   0.0000       4.349753       118.3628 
  61   0.0000       4.468430       121.5921 
  62   0.0000       4.468643       121.5980 
  63   0.0000      22.179189       603.5264 

                 SPIN DOWN ORBITALS
  NO   OCC          E(Eh)            E(eV) 
   0   1.0000     -10.283508      -279.8285 
   1   1.0000      -0.785681       -21.3795 
   2   1.0000      -0.478225       -13.0132 
   3   1.0000      -0.478207       -13.0127 
   4   0.0000      -0.034892        -0.9495 
   5   0.0000       0.083419         2.2700 
   6   0.0000       0.166630         4.5342 
   7   0.0000       0.166635         4.5344 
   8   0.0000       0.200942         5.4679 
   9   0.0000       0.200949         5.4681 
  10   0.0000       0.210785         5.7358 
  11   0.0000       0.250690         6.8216 
  12   0.0000       0.257040         6.9944 
  13   0.0000       0.257040         6.9944 
  14   0.0000       0.325060         8.8453 
  15   0.0000       0.367276         9.9941 
  16   0.0000       0.367280         9.9942 
  17   0.0000       0.369684        10.0596 
  18   0.0000       0.379748        10.3335 
  19   0.0000       0.390675        10.6308 
  20   0.0000       0.390677        10.6309 
  21   0.0000       0.406047        11.0491 
  22   0.0000       0.406050        11.0492 
  23   0.0000       0.565308        15.3828 
  24   0.0000       0.565314        15.3830 
  25   0.0000       0.569889        15.5075 
  26   0.0000       0.647622        17.6227 
  27   0.0000       0.791622        21.5411 
  28   0.0000       0.801778        21.8175 
  29   0.0000       0.801781        21.8176 
  30   0.0000       0.888963        24.1899 
  31   0.0000       0.888985        24.1905 
  32   0.0000       0.987986        26.8845 
  33   0.0000       1.172445        31.9039 
  34   0.0000       1.172473        31.9046 
  35   0.0000       1.717880        46.7459 
  36   0.0000       1.751876        47.6710 
  37   0.0000       1.751957        47.6732 
  38   0.0000       1.774807        48.2950 
  39   0.0000       1.831752        49.8445 
  40   0.0000       1.954957        53.1971 
  41   0.0000       1.955003        53.1983 
  42   0.0000       2.205139        60.0049 
  43   0.0000       2.228027        60.6277 
  44   0.0000       2.228067        60.6288 
  45   0.0000       2.453618        66.7663 
  46   0.0000       2.651914        72.1622 
  47   0.0000       2.651917        72.1623 
  48   0.0000       2.749615        74.8208 
  49   0.0000       2.749655        74.8219 
  50   0.0000       2.828671        76.9720 
  51   0.0000       3.128960        85.1433 
  52   0.0000       3.202552        87.1459 
  53   0.0000       3.202569        87.1463 
  54   0.0000       3.315250        90.2125 
  55   0.0000       3.354647        91.2846 
  56   0.0000       3.354684        91.2856 
  57   0.0000       3.388340        92.2014 
  58   0.0000       3.767228       102.5115 
  59   0.0000       3.767231       102.5116 
  60   0.0000       4.373739       119.0155 
  61   0.0000       4.490941       122.2047 
  62   0.0000       4.491126       122.2098 
  63   0.0000      22.199231       604.0718 

                    ********************************
                    * MULLIKEN POPULATION ANALYSIS *
                    ********************************

--------------------------------------------
MULLIKEN ATOMIC CHARGES AND SPIN POPULATIONS
--------------------------------------------
   0 C :   -0.691993    0.885917
   1 H :    0.230377    0.038031
   2 H :    0.230808    0.038026
   3 H :    0.230808    0.038026
Sum of atomic charges         :    0.0000000
Sum of atomic spin populations:    1.0000000

-----------------------------------------------------
MULLIKEN REDUCED ORBITAL CHARGES AND SPIN POPULATIONS
-----------------------------------------------------
CHARGE
  0 C s       :     3.317831  s :     3.317831
      pz      :     0.958275  p :     3.320814
      px      :     1.181238
      py      :     1.181301
      dz2     :     0.000137  d :     0.052749
      dxz     :     0.018463
      dyz     :     0.018474
      dx2y2   :     0.007830
      dxy     :     0.007846
      f0      :     0.000332  f :     0.000599
      f+1     :     0.000018
      f-1     :     0.000018
      f+2     :    -0.000067
      f-2     :    -0.000063
      f+3     :     0.000360
      f-3     :     0.000000
  1 H s       :     0.726693  s :     0.726693
      pz      :     0.022469  p :     0.042930
      px      :     0.015555
      py      :     0.004907
  2 H s       :     0.726381  s :     0.726381
      pz      :     0.022404  p :     0.042810
      px      :     0.007550
      py      :     0.012856
  3 H s       :     0.726382  s :     0.726382
      pz      :     0.022404  p :     0.042811
      px      :     0.007550
      py      :     0.012857

SPIN
  0 C s       :     0.027359  s :     0.027359
      pz      :     0.861455  p :     0.869914
      px      :     0.004203
      py      :     0.004256
      dz2     :    -0.000723  d :    -0.010806
      dxz     :    -0.004650
      dyz     :    -0.004645
      dx2y2   :    -0.000399
      dxy     :    -0.000389
      f0      :    -0.000469  f :    -0.000551
      f+1     :     0.000033
      f-1     :     0.000032
      f+2     :    -0.000017
      f-2     :    -0.000015
      f+3     :    -0.000115
      f-3     :    -0.000000
  1 H s       :     0.016259  s :     0.016259
      pz      :     0.019311  p :     0.021773
      px      :    -0.000389
      py      :     0.002851
  2 H s       :     0.016313  s :     0.016313
      pz      :     0.019259  p :     0.021713
      px      :     0.002035
      py      :     0.000419
  3 H s       :     0.016313  s :     0.016313
      pz      :     0.019259  p :     0.021713
      px      :     0.002035
      py      :     0.000419


                     *******************************
                     * LOEWDIN POPULATION ANALYSIS *
                     *******************************

-------------------------------------------
LOEWDIN ATOMIC CHARGES AND SPIN POPULATIONS
-------------------------------------------
   0 C :    0.055264    0.836116
   1 H :   -0.018450    0.054628
   2 H :   -0.018407    0.054628
   3 H :   -0.018407    0.054628

----------------------------------------------------
LOEWDIN REDUCED ORBITAL CHARGES AND SPIN POPULATIONS
----------------------------------------------------
CHARGE
  0 C s       :     2.905710  s :     2.905710
      pz      :     0.766467  p :     2.906274
      px      :     1.069898
      py      :     1.069909
      dz2     :     0.003572  d :     0.121341
      dxz     :     0.030370
      dyz     :     0.030372
      dx2y2   :     0.028512
      dxy     :     0.028514
      f0      :     0.001462  f :     0.011412
      f+1     :     0.000087
      f-1     :     0.000086
      f+2     :     0.003745
      f-2     :     0.003747
      f+3     :     0.002285
      f-3     :     0.000000
  1 H s       :     0.749151  s :     0.749151
      pz      :     0.071122  p :     0.269298
      px      :     0.121196
      py      :     0.076980
  2 H s       :     0.749125  s :     0.749125
      pz      :     0.071110  p :     0.269282
      px      :     0.088026
      py      :     0.110146
  3 H s       :     0.749125  s :     0.749125
      pz      :     0.071110  p :     0.269282
      px      :     0.088026
      py      :     0.110146

SPIN
  0 C s       :     0.116451  s :     0.116451
      pz      :     0.689254  p :     0.730086
      px      :     0.020428
      py      :     0.020403
      dz2     :     0.000971  d :    -0.010259
      dxz     :    -0.004048
      dyz     :    -0.004051
      dx2y2   :    -0.001572
      dxy     :    -0.001560
      f0      :    -0.000192  f :    -0.000162
      f+1     :     0.000064
      f-1     :     0.000064
      f+2     :    -0.000203
      f-2     :    -0.000201
      f+3     :     0.000308
      f-3     :    -0.000000
  1 H s       :    -0.000806  s :    -0.000806
      pz      :     0.053436  p :     0.055434
      px      :     0.002965
      py      :    -0.000966
  2 H s       :    -0.000816  s :    -0.000816
      pz      :     0.053438  p :     0.055443
      px      :     0.000013
      py      :     0.001992
  3 H s       :    -0.000816  s :    -0.000816
      pz      :     0.053438  p :     0.055443
      px      :     0.000013
      py      :     0.001992


                      *****************************
                      * MAYER POPULATION ANALYSIS *
                      *****************************

  NA   - Mulliken gross atomic population
  ZA   - Total nuclear charge
  QA   - Mulliken gross atomic charge
  VA   - Mayer's total valence
  BVA  - Mayer's bonded valence
  FA   - Mayer's free valence

  ATOM       NA         ZA         QA         VA         BVA        FA
  0 C      6.6920     6.0000    -0.6920     3.8282     3.0521     0.7762
  1 H      0.7696     1.0000     0.2304     1.0083     1.0069     0.0014
  2 H      0.7692     1.0000     0.2308     1.0078     1.0064     0.0014
  3 H      0.7692     1.0000     0.2308     1.0078     1.0064     0.0014

  Mayer bond orders larger than 0.100000
B(  0-C ,  1-H ) :   1.0176 B(  0-C ,  2-H ) :   1.0172 B(  0-C ,  3-H ) :   1.0172 


-------
TIMINGS
-------

Total SCF time: 0 days 0 hours 0 min 7 sec 

Total time                  ....       7.805 sec
Sum of individual times     ....       7.186 sec  ( 92.1%)

Fock matrix formation       ....       6.005 sec  ( 76.9%)
  Split-RI-J                ....       0.848 sec  ( 14.1% of F)
  Chain of spheres X        ....       1.340 sec  ( 22.3% of F)
  XC integration            ....       1.173 sec  ( 19.5% of F)
    Basis function eval.    ....       0.052 sec  (  4.4% of XC)
    Density eval.           ....       0.049 sec  (  4.2% of XC)
    XC-Functional eval.     ....       0.053 sec  (  4.5% of XC)
    XC-Potential eval.      ....       0.072 sec  (  6.2% of XC)
Diagonalization             ....       0.188 sec  (  2.4%)
Density matrix formation    ....       0.007 sec  (  0.1%)
Population analysis         ....       0.135 sec  (  1.7%)
Initial guess               ....       0.112 sec  (  1.4%)
Orbital Transformation      ....       0.000 sec  (  0.0%)
Orbital Orthonormalization  ....       0.000 sec  (  0.0%)
DIIS solution               ....       0.352 sec  (  4.5%)
Grid generation             ....       0.387 sec  (  5.0%)

Maximum memory used throughout the entire SCF-calculation: 58.5 MB


-------------------------------------------------------------------------------
                          DFT DISPERSION CORRECTION                            
                                                                               
                              DFTD3 V3.1  Rev 1                                
                              USING zero damping                               
-------------------------------------------------------------------------------
The omegaB97X-D3 functional is recognized. Fit by Chai et al.
Active option DFTDOPT                   ...         3   

molecular C6(AA) [au] = 106.957767 


            DFT-D V3
 parameters
 s6 scaling factor         :     1.0000 
 rs6 scaling factor        :     1.2810 
 s8 scaling factor         :     1.0000 
 rs8 scaling factor        :     1.0940 
 Damping factor alpha6     :    14.0000 
 Damping factor alpha8     :    16.0000 
 ad hoc parameters k1-k3   :    16.0000     1.3333    -4.0000 

 Edisp/kcal,au: -0.004281031144  -0.000006822257 
 E6   /kcal   :  -0.000665676 
 E8   /kcal   :  -0.003615355 
 % E8         :  84.450566951 

-------------------------   ----------------
Dispersion correction           -0.000006822
-------------------------   ----------------


-------------------------   --------------------
FINAL SINGLE POINT ENERGY       -39.806778147986
-------------------------   --------------------



           ************************************************************
           *        Program running with 18 parallel MPI-processes    *
           *              working on a common directory               *
           ************************************************************
------------------------------------------------------------------------------
                         ORCA SCF GRADIENT CALCULATION
------------------------------------------------------------------------------

 ... reading COSX grid (gridx3)
Gradient of the Kohn-Sham DFT energy:
Kohn-Sham wavefunction type      ... UKS
Hartree-Fock exchange scaling    ...    0.196
Number of operators              ...    2
Number of atoms                  ...    4
Basis set dimensions             ...   64
Integral neglect threshold       ... 2.5e-11
Integral primitive cutoff        ... 2.5e-12
SHARK Integral package           ... ON

Nuc. rep. gradient       (SHARK) ... done (  0.0 sec)
HCore & Overlap gradient (SHARK) ... done (  0.0 sec)
RI-J gradient            (SHARK) ... done (  0.1 sec)
COSX-gradient                    ... done (  0.1 sec)
Exchange-correlation gradient    ... done
Dispersion correction            ... done

------------------
CARTESIAN GRADIENT
------------------

WARNING: THERE ARE 3 CONSTRAINED CARTESIAN COORDINATES
   1   C   :   -0.000077838   -0.000000009    0.066633686
   2   H   :   -0.025629416   -0.000000010   -0.022257685
   3   H   :    0.012813324   -0.022144910   -0.022182791
   4   H   :    0.012813327    0.022144911   -0.022182772

Difference to translation invariance:
           :   -0.0000806033   -0.0000000181    0.0000104377

Difference to rotation invariance:
           :   -0.0000000372    0.0001373936   -0.0000000124

Norm of the cartesian gradient     ...    0.0888010927
RMS gradient                       ...    0.0256346674
MAX gradient                       ...    0.0666336862

-------
TIMINGS
-------

Total SCF gradient time            ...        0.679 sec

One electron gradient       ....       0.006 sec  (  0.9%)
RI-J Coulomb gradient       ....       0.122 sec  ( 18.0%)
COSX gradient               ....       0.139 sec  ( 20.5%)
XC gradient                 ....       0.093 sec  ( 13.7%)

Maximum memory used throughout the entire SCFGRAD-calculation: 33.6 MB
------------------------------------------------------------------------------
                         ORCA GEOMETRY RELAXATION STEP
------------------------------------------------------------------------------

Reading the OPT-File                    .... done
Getting information on internals        .... done
Copying old internal coords+grads       .... done
Making the new internal coordinates     .... (new redundants).... done
Validating the new internal coordinates .... (new redundants).... done
Calculating the B-matrix                .... done
Calculating the G,G- and P matrices     .... done
Transforming gradient to internals      .... done
Projecting the internal gradient        .... done
Number of atoms                         ....   4
Number of internal coordinates          ....   7
Current Energy                          ....   -39.806778148 Eh
Current gradient norm                   ....     0.088801093 Eh/bohr
Maximum allowed component of the step   ....  0.300
Current trust radius                    ....  0.300
Evaluating the initial hessian          ....  (Almloef) done
Projecting the Hessian                  .... done
Forming the augmented Hessian           .... done
Diagonalizing the augmented Hessian     .... done
Last element of RFO vector              ....  0.998448621
Lowest eigenvalues of augmented Hessian:
 -0.001165439  0.373574723  0.373574723  0.374740162 1000.000000000
Length of the computed step             ....  0.055767305
The final length of the internal step   ....  0.055767305
Converting the step to cartesian space:
 Initial RMS(Int)=    0.0210780602
Transforming coordinates:
 Iter   0:  RMS(Cart)=    0.0146888352 RMS(Int)=    0.0210780602
 Iter   1:  RMS(Cart)=    0.0000000000 RMS(Int)=    0.0000000000
Imposing constraints:
 Iter   0:  RMS(Cart)=    0.0000000014 RMS(Int)=    0.0000000022
CONVERGED
done
Storing new coordinates                 .... done

                                .--------------------.
          ----------------------|Geometry convergence|-------------------------
          Item                value                   Tolerance       Converged
          ---------------------------------------------------------------------
          RMS gradient        0.0078987957            0.0001000000      NO
          MAX gradient        0.0120686205            0.0003000000      NO
          RMS step            0.0210780602            0.0020000000      NO
          MAX step            0.0322053030            0.0040000000      NO
          ........................................................
          Max(Bonds)      0.0170      Max(Angles)    0.00
          Max(Dihed)        0.00      Max(Improp)    0.00
          ---------------------------------------------------------------------

The optimization has not yet converged - more geometry cycles are needed


    ---------------------------------------------------------------------------
                         Redundant Internal Coordinates
                            (Angstroem and degrees)

        Definition                    Value    dE/dq     Step     New-Value
    ----------------------------------------------------------------------------
     1. B(H   1,C   0)                1.0800 -0.012060  0.0170    1.0970   
     2. B(H   2,C   0)                1.0800 -0.012069  0.0170    1.0970   
     3. B(H   3,C   0)                1.0800 -0.012069  0.0170    1.0970   
     4. A(H   2,C   0,H   3)           99.50 -0.044861    0.00     99.50 C 
     5. A(H   1,C   0,H   2)           99.50 -0.020272   -0.00     99.50 C 
     6. A(H   1,C   0,H   3)           99.50 -0.020272    0.00     99.50 C 
     7. I(H   1,H   3,H   2,C   0)     75.20  0.039007   -0.00     75.20   
    ----------------------------------------------------------------------------

         *************************************************************
         *                GEOMETRY OPTIMIZATION CYCLE   2            *
         *************************************************************
---------------------------------
CARTESIAN COORDINATES (ANGSTROEM)
---------------------------------
  C      0.000004    0.000000    0.006038
  H      0.966820    0.000000   -0.512363
  H     -0.483412    0.837298   -0.512365
  H     -0.483412   -0.837298   -0.512365

----------------------------
CARTESIAN COORDINATES (A.U.)
----------------------------
  NO LB      ZA    FRAG     MASS         X           Y           Z
   0 C     6.0000    0    12.011    0.000007    0.000000    0.011411
   1 H     1.0000    0     1.008    1.827025    0.000000   -0.968226
   2 H     1.0000    0     1.008   -0.913516    1.582264   -0.968230
   3 H     1.0000    0     1.008   -0.913516   -1.582265   -0.968230

--------------------------------
INTERNAL COORDINATES (ANGSTROEM)
--------------------------------
 C      0   0   0     0.000000000000     0.00000000     0.00000000
 H      1   0   0     1.097029572450     0.00000000     0.00000000
 H      1   2   0     1.097042294527    99.50000009     0.00000000
 H      1   2   3     1.097042312334    99.50000009   101.40091983

---------------------------
INTERNAL COORDINATES (A.U.)
---------------------------
 C      0   0   0     0.000000000000     0.00000000     0.00000000
 H      1   0   0     2.073085452743     0.00000000     0.00000000
 H      1   2   0     2.073109493985    99.50000009     0.00000000
 H      1   2   3     2.073109527636    99.50000009   101.40091983



           ************************************************************
           *        Program running with 18 parallel MPI-processes    *
           *              working on a common directory               *
           ************************************************************
------------------------------------------------------------------------------
                   ___                                                        
                  /   \      - P O W E R E D   B Y -                         
                 /     \                                                     
                 |  |  |   _    _      __       _____    __    __             
                 |  |  |  | |  | |    /  \     |  _  \  |  |  /  |          
                  \  \/   | |  | |   /    \    | | | |  |  | /  /          
                 / \  \   | |__| |  /  /\  \   | |_| |  |  |/  /          
                |  |  |   |  __  | /  /__\  \  |    /   |      \           
                |  |  |   | |  | | |   __   |  |    \   |  |\   \          
                \     /   | |  | | |  |  |  |  | |\  \  |  | \   \       
                 \___/    |_|  |_| |__|  |__|  |_| \__\ |__|  \__/        
                                                                              
                      - O R C A' S   B I G   F R I E N D -                    
                                      &                                       
                       - I N T E G R A L  F E E D E R -                       
                                                                              
 v1 FN, 2020, v2 2021                                                         
------------------------------------------------------------------------------


Reading SHARK input file /beegfs/scratch/ispackman/PFAS_EPR_calcs/benchmark/JChemEd_CF3_radical/CH3_radical_99.5_degrees_IN-PROGRESS/CH3_radical_99.5_degrees.SHARKINP.tmp ... ok
----------------------
SHARK INTEGRAL PACKAGE
----------------------

Number of atoms                             ...      4
Number of basis functions                   ...     64
Number of shells                            ...     28
Maximum angular momentum                    ...      3
Integral batch strategy                     ... SHARK/LIBINT Hybrid
RI-J (if used) integral strategy            ... SPLIT-RIJ (Revised 2003 algorithm where possible)
Printlevel                                  ...      1
Contraction scheme used                     ... SEGMENTED contraction
Coulomb Range Separation                    ... NOT USED
Exchange Range Separation                   ... Long Range
   Mu parameter                             ...  0.250000
   Scaling (regular/separated)              ...  0.195728  0.804272
Finite Nucleus Model                        ... NOT USED
Auxiliary Coulomb fitting basis             ... AVAILABLE
   # of basis functions in Aux-J            ...     82
   # of shells in Aux-J                     ...     30
   Maximum angular momentum in Aux-J        ...      4
Auxiliary J/K fitting basis                 ... NOT available
Auxiliary Correlation fitting basis         ... NOT available
Auxiliary 'external' fitting basis          ... NOT available
Integral threshold                          ...     2.500000e-11
Primitive cut-off                           ...     2.500000e-12
Primitive pair pre-selection threshold      ...     2.500000e-12

Calculating pre-screening integrals         ... done (  0.0 sec) Dimension = 28
Organizing shell pair data                  ... done (  0.0 sec)
Shell pair information
Total number of shell pairs                 ...       406
Shell pairs after pre-screening             ...       406
Total number of primitive shell pairs       ...       977
Primitive shell pairs kept                  ...       947
          la=0 lb=0:    120 shell pairs
          la=1 lb=0:    135 shell pairs
          la=1 lb=1:     45 shell pairs
          la=2 lb=0:     45 shell pairs
          la=2 lb=1:     27 shell pairs
          la=2 lb=2:      6 shell pairs
          la=3 lb=0:     15 shell pairs
          la=3 lb=1:      9 shell pairs
          la=3 lb=2:      3 shell pairs
          la=3 lb=3:      1 shell pairs

Calculating one electron integrals          ... done (  0.0 sec)
Calculating RI/J V-Matrix + Cholesky decomp.... done (  0.0 sec)
Calculating Nuclear repulsion               ... done (  0.0 sec) ENN=      9.630654974018 Eh

SHARK setup successfully completed in   0.3 seconds

Maximum memory used throughout the entire GTOINT-calculation: 14.0 MB


           ************************************************************
           *        Program running with 18 parallel MPI-processes    *
           *              working on a common directory               *
           ************************************************************

Diagonalization of the overlap matrix:
Smallest eigenvalue                        ... 4.380e-05
Time for diagonalization                   ...    0.002 sec
Threshold for overlap eigenvalues          ... 1.000e-08
Number of eigenvalues below threshold      ... 0
Time for construction of square roots      ...    0.011 sec
Total time needed                          ...    0.015 sec

-------------------
DFT GRID GENERATION
-------------------

General Integration Accuracy     IntAcc      ... 4.388
Radial Grid Type                 RadialGrid  ... OptM3 with GC (2021)
Angular Grid (max. ang.)         AngularGrid ... 4 (Lebedev-302)
Angular grid pruning method      GridPruning ... 4 (adaptive)
Weight generation scheme         WeightScheme... Becke
Basis function cutoff            BFCut       ... 1.0000e-11
Integration weight cutoff        WCut        ... 1.0000e-14
Angular grids for H and He will be reduced by one unit
Partially contracted basis set               ... off
Rotationally invariant grid construction     ... off

Total number of grid points                  ...    17040
Total number of batches                      ...      268
Average number of points per batch           ...       63
Average number of grid points per atom       ...     4260
Time for grid setup =    0.092 sec

--------------------
COSX GRID GENERATION
--------------------

GRIDX 1
-------
General Integration Accuracy     IntAcc      ... 3.816
Radial Grid Type                 RadialGrid  ... OptM3 with GC (2021)
Angular Grid (max. ang.)         AngularGrid ... 1 (Lebedev-50)
Angular grid pruning method      GridPruning ... 4 (adaptive)
Weight generation scheme         WeightScheme... Becke
Basis function cutoff            BFCut       ... 1.0000e-11
Integration weight cutoff        WCut        ... 1.0000e-14
Angular grids for H and He will be reduced by one unit
Partially contracted basis set               ... on
Rotationally invariant grid construction     ... off

Total number of grid points                  ...     2147
Total number of batches                      ...       36
Average number of points per batch           ...       59
Average number of grid points per atom       ...      537
UseSFitting                                  ... on

GRIDX 2
-------
General Integration Accuracy     IntAcc      ... 4.020
Radial Grid Type                 RadialGrid  ... OptM3 with GC (2021)
Angular Grid (max. ang.)         AngularGrid ... 2 (Lebedev-110)
Angular grid pruning method      GridPruning ... 4 (adaptive)
Weight generation scheme         WeightScheme... Becke
Basis function cutoff            BFCut       ... 1.0000e-11
Integration weight cutoff        WCut        ... 1.0000e-14
Angular grids for H and He will be reduced by one unit
Partially contracted basis set               ... on
Rotationally invariant grid construction     ... off

Total number of grid points                  ...     5047
Total number of batches                      ...       81
Average number of points per batch           ...       62
Average number of grid points per atom       ...     1262
UseSFitting                                  ... on

GRIDX 3
-------
General Integration Accuracy     IntAcc      ... 4.338
Radial Grid Type                 RadialGrid  ... OptM3 with GC (2021)
Angular Grid (max. ang.)         AngularGrid ... 3 (Lebedev-194)
Angular grid pruning method      GridPruning ... 4 (adaptive)
Weight generation scheme         WeightScheme... Becke
Basis function cutoff            BFCut       ... 1.0000e-11
Integration weight cutoff        WCut        ... 1.0000e-14
Angular grids for H and He will be reduced by one unit
Partially contracted basis set               ... on
Rotationally invariant grid construction     ... off

Total number of grid points                  ...    11716
Total number of batches                      ...      185
Average number of points per batch           ...       63
Average number of grid points per atom       ...     2929
UseSFitting                                  ... on

Time for X-Grid setup             =    0.256 sec

--------------
SCF ITERATIONS
--------------
ITER       Energy         Delta-E        Max-DP      RMS-DP      [F,P]     Damp
               ***  Starting incremental Fock matrix formation  ***
  0    -39.8071962020   0.000000000000 0.01388662  0.00023063  0.0044317 0.7000
  1    -39.8072502397  -0.000054037630 0.01213937  0.00020181  0.0032464 0.7000
                               ***Turning on DIIS***
  2    -39.8072863937  -0.000036154088 0.03133187  0.00052116  0.0023626 0.0000
  3    -39.8073657979  -0.000079404198 0.00598057  0.00010267  0.0006936 0.0000
               *** Restarting incremental Fock matrix formation ***
                                   *** Resetting DIIS ***
  4    -39.8073695426  -0.000003744686 0.00064272  0.00001876  0.0003418 0.0000
  5    -39.8073701583  -0.000000615662 0.00046710  0.00000910  0.0002017 0.0000
  6    -39.8073704174  -0.000000259067 0.00014647  0.00000440  0.0000430 0.0000
  7    -39.8073704387  -0.000000021292 0.00006472  0.00000142  0.0000105 0.0000
                 **** Energy Check signals convergence ****

               *****************************************************
               *                     SUCCESS                       *
               *           SCF CONVERGED AFTER   8 CYCLES          *
               *****************************************************

Old exchange energy                            =     -2.168733660 Eh
New exchange energy                            =     -2.168736793 Eh
Exchange energy change after final integration =     -0.000003133 Eh
Total energy after final integration           =    -39.807373573 Eh
Final COS-X integration done in                =     0.124 sec
Total Energy       :          -39.80737357 Eh           -1083.21370 eV
  Last Energy change         ...   -1.1124e-09  Tolerance :   1.0000e-08
  Last MAX-Density change    ...    0.0000e+00  Tolerance :   1.0000e-07
             **** THE GBW FILE WAS UPDATED (/beegfs/scratch/ispackman/PFAS_EPR_calcs/benchmark/JChemEd_CF3_radical/CH3_radical_99.5_degrees_IN-PROGRESS/CH3_radical_99.5_degrees.gbw) ****
             **** DENSITY /beegfs/scratch/ispackman/PFAS_EPR_calcs/benchmark/JChemEd_CF3_radical/CH3_radical_99.5_degrees_IN-PROGRESS/CH3_radical_99.5_degrees.scfp WAS UPDATED ****
             **** ENERGY FILE WAS UPDATED (/beegfs/scratch/ispackman/PFAS_EPR_calcs/benchmark/JChemEd_CF3_radical/CH3_radical_99.5_degrees_IN-PROGRESS/CH3_radical_99.5_degrees.en.tmp) ****
----------------------
UHF SPIN CONTAMINATION
----------------------

Warning: in a DFT calculation there is little theoretical justification to 
         calculate <S**2> as in Hartree-Fock theory. We will do it anyways
         but you should keep in mind that the values have only limited relevance

Expectation value of <S**2>     :     0.753149
Ideal value S*(S+1) for S=0.5   :     0.750000
Deviation                       :     0.003149

             **** THE GBW FILE WAS UPDATED (/beegfs/scratch/ispackman/PFAS_EPR_calcs/benchmark/JChemEd_CF3_radical/CH3_radical_99.5_degrees_IN-PROGRESS/CH3_radical_99.5_degrees.gbw) ****
             **** DENSITY /beegfs/scratch/ispackman/PFAS_EPR_calcs/benchmark/JChemEd_CF3_radical/CH3_radical_99.5_degrees_IN-PROGRESS/CH3_radical_99.5_degrees.scfp WAS UPDATED ****
Total SCF time: 0 days 0 hours 0 min 6 sec 

Maximum memory used throughout the entire SCF-calculation: 58.5 MB


-------------------------------------------------------------------------------
                          DFT DISPERSION CORRECTION                            
                                                                               
                              DFTD3 V3.1  Rev 1                                
                              USING zero damping                               
-------------------------------------------------------------------------------
-------------------------   ----------------
Dispersion correction           -0.000007734
-------------------------   ----------------


-------------------------   --------------------
FINAL SINGLE POINT ENERGY       -39.807381307106
-------------------------   --------------------



           ************************************************************
           *        Program running with 18 parallel MPI-processes    *
           *              working on a common directory               *
           ************************************************************
------------------------------------------------------------------------------
                         ORCA SCF GRADIENT CALCULATION
------------------------------------------------------------------------------

 ... reading COSX grid (gridx3)
Gradient of the Kohn-Sham DFT energy:
Kohn-Sham wavefunction type      ... UKS
Hartree-Fock exchange scaling    ...    0.196
Number of operators              ...    2
Number of atoms                  ...    4
Basis set dimensions             ...   64
Integral neglect threshold       ... 2.5e-11
Integral primitive cutoff        ... 2.5e-12
SHARK Integral package           ... ON

Nuc. rep. gradient       (SHARK) ... done (  0.0 sec)
HCore & Overlap gradient (SHARK) ... done (  0.0 sec)
RI-J gradient            (SHARK) ... done (  0.1 sec)
COSX-gradient                    ... done (  0.1 sec)
Exchange-correlation gradient    ... done
Dispersion correction            ... done

------------------
CARTESIAN GRADIENT
------------------

WARNING: THERE ARE 3 CONSTRAINED CARTESIAN COORDINATES
   1   C   :   -0.000086252    0.000000011    0.079895184
   2   H   :   -0.014976500    0.000000017   -0.026674633
   3   H   :    0.007489690   -0.012923147   -0.026607816
   4   H   :    0.007489690    0.012923137   -0.026607810

Difference to translation invariance:
           :   -0.0000833708    0.0000000184    0.0000049252

Difference to rotation invariance:
           :   -0.0000000032    0.0001174726    0.0000000403

Norm of the cartesian gradient     ...    0.0958187719
RMS gradient                       ...    0.0276604969
MAX gradient                       ...    0.0798951844

-------
TIMINGS
-------

Total SCF gradient time            ...        0.644 sec

One electron gradient       ....       0.006 sec  (  1.0%)
RI-J Coulomb gradient       ....       0.141 sec  ( 21.9%)
COSX gradient               ....       0.114 sec  ( 17.7%)
XC gradient                 ....       0.065 sec  ( 10.1%)

Maximum memory used throughout the entire SCFGRAD-calculation: 33.6 MB
------------------------------------------------------------------------------
                         ORCA GEOMETRY RELAXATION STEP
------------------------------------------------------------------------------

Reading the OPT-File                    .... done
Getting information on internals        .... done
Copying old internal coords+grads       .... done
Making the new internal coordinates     .... (new redundants).... done
Validating the new internal coordinates .... (new redundants).... done
Calculating the B-matrix                .... done
Calculating the G,G- and P matrices     .... done
Transforming gradient to internals      .... done
Projecting the internal gradient        .... done
Number of atoms                         ....   4
Number of internal coordinates          ....   7
Current Energy                          ....   -39.807381307 Eh
Current gradient norm                   ....     0.095818772 Eh/bohr
Maximum allowed component of the step   ....  0.300
Current trust radius                    ....  0.300
Updating the Hessian (BFGS)             .... done
Forming the augmented Hessian           .... done
Diagonalizing the augmented Hessian     .... done
Last element of RFO vector              ....  0.999995877
Lowest eigenvalues of augmented Hessian:
 -0.000002939  0.356389548  0.373574723  0.373577273 999.999999975
Length of the computed step             ....  0.002871734
The final length of the internal step   ....  0.002871734
Converting the step to cartesian space:
 Initial RMS(Int)=    0.0010854135
Transforming coordinates:
 Iter   0:  RMS(Cart)=    0.0007563867 RMS(Int)=    0.0010854135
 Iter   1:  RMS(Cart)=    0.0000000000 RMS(Int)=    0.0000000000
Imposing constraints:
 Iter   0:  RMS(Cart)=    0.0000000005 RMS(Int)=    0.0000000012
CONVERGED
done
Storing new coordinates                 .... done

                                .--------------------.
          ----------------------|Geometry convergence|-------------------------
          Item                value                   Tolerance       Converged
          ---------------------------------------------------------------------
          Energy change      -0.0006031591            0.0000050000      NO
          RMS gradient        0.0003868300            0.0001000000      NO
          MAX gradient        0.0005956630            0.0003000000      NO
          RMS step            0.0010854135            0.0020000000      YES
          MAX step            0.0016714218            0.0040000000      YES
          ........................................................
          Max(Bonds)      0.0009      Max(Angles)    0.00
          Max(Dihed)        0.00      Max(Improp)    0.00
          ---------------------------------------------------------------------

The optimization has not yet converged - more geometry cycles are needed


    ---------------------------------------------------------------------------
                         Redundant Internal Coordinates
                            (Angstroem and degrees)

        Definition                    Value    dE/dq     Step     New-Value
    ----------------------------------------------------------------------------
     1. B(H   1,C   0)                1.0970 -0.000581  0.0009    1.0979   
     2. B(H   2,C   0)                1.0970 -0.000596  0.0009    1.0979   
     3. B(H   3,C   0)                1.0970 -0.000596  0.0009    1.0979   
     4. A(H   2,C   0,H   3)           99.50 -0.043930    0.00     99.50 C 
     5. A(H   1,C   0,H   2)           99.50 -0.019854    0.00     99.50 C 
     6. A(H   1,C   0,H   3)           99.50 -0.019854    0.00     99.50 C 
     7. I(H   1,H   3,H   2,C   0)     75.20  0.038202   -0.00     75.20   
    ----------------------------------------------------------------------------

         *************************************************************
         *                GEOMETRY OPTIMIZATION CYCLE   3            *
         *************************************************************
---------------------------------
CARTESIAN COORDINATES (ANGSTROEM)
---------------------------------
  C      0.000010   -0.000000    0.006349
  H      0.967585   -0.000000   -0.512465
  H     -0.483798    0.837973   -0.512470
  H     -0.483798   -0.837973   -0.512470

----------------------------
CARTESIAN COORDINATES (A.U.)
----------------------------
  NO LB      ZA    FRAG     MASS         X           Y           Z
   0 C     6.0000    0    12.011    0.000020   -0.000000    0.011999
   1 H     1.0000    0     1.008    1.828470   -0.000000   -0.968418
   2 H     1.0000    0     1.008   -0.914245    1.583540   -0.968428
   3 H     1.0000    0     1.008   -0.914245   -1.583540   -0.968428

--------------------------------
INTERNAL COORDINATES (ANGSTROEM)
--------------------------------
 C      0   0   0     0.000000000000     0.00000000     0.00000000
 H      1   0   0     1.097892584325     0.00000000     0.00000000
 H      1   2   0     1.097926772842    99.50000016     0.00000000
 H      1   2   3     1.097926769123    99.50000016   101.40091988

---------------------------
INTERNAL COORDINATES (A.U.)
---------------------------
 C      0   0   0     0.000000000000     0.00000000     0.00000000
 H      1   0   0     2.074716308838     0.00000000     0.00000000
 H      1   2   0     2.074780915772    99.50000016     0.00000000
 H      1   2   3     2.074780908743    99.50000016   101.40091988



           ************************************************************
           *        Program running with 18 parallel MPI-processes    *
           *              working on a common directory               *
           ************************************************************
------------------------------------------------------------------------------
                   ___                                                        
                  /   \      - P O W E R E D   B Y -                         
                 /     \                                                     
                 |  |  |   _    _      __       _____    __    __             
                 |  |  |  | |  | |    /  \     |  _  \  |  |  /  |          
                  \  \/   | |  | |   /    \    | | | |  |  | /  /          
                 / \  \   | |__| |  /  /\  \   | |_| |  |  |/  /          
                |  |  |   |  __  | /  /__\  \  |    /   |      \           
                |  |  |   | |  | | |   __   |  |    \   |  |\   \          
                \     /   | |  | | |  |  |  |  | |\  \  |  | \   \       
[...]
  ZA   - Total nuclear charge
  QA   - Mulliken gross atomic charge
  VA   - Mayer's total valence
  BVA  - Mayer's bonded valence
  FA   - Mayer's free valence

  ATOM       NA         ZA         QA         VA         BVA        FA
  0 C      6.6656     6.0000    -0.6656     3.8371     3.0484     0.7887
  1 H      0.7784     1.0000     0.2216     1.0147     1.0136     0.0012
  2 H      0.7780     1.0000     0.2220     1.0141     1.0130     0.0012
  3 H      0.7780     1.0000     0.2220     1.0141     1.0130     0.0012

  Mayer bond orders larger than 0.100000
B(  0-C ,  1-H ) :   1.0165 B(  0-C ,  2-H ) :   1.0159 B(  0-C ,  3-H ) :   1.0160 


-------
TIMINGS
-------

Total SCF time: 0 days 0 hours 0 min 4 sec 

Total time                  ....       4.406 sec
Sum of individual times     ....       3.848 sec  ( 87.3%)

Fock matrix formation       ....       3.182 sec  ( 72.2%)
  Split-RI-J                ....       0.486 sec  ( 15.3% of F)
  Chain of spheres X        ....       0.817 sec  ( 25.7% of F)
  XC integration            ....       0.599 sec  ( 18.8% of F)
    Basis function eval.    ....       0.025 sec  (  4.2% of XC)
    Density eval.           ....       0.024 sec  (  4.1% of XC)
    XC-Functional eval.     ....       0.026 sec  (  4.4% of XC)
    XC-Potential eval.      ....       0.032 sec  (  5.3% of XC)
Diagonalization             ....       0.079 sec  (  1.8%)
Density matrix formation    ....       0.007 sec  (  0.2%)
Population analysis         ....       0.129 sec  (  2.9%)
Initial guess               ....       0.006 sec  (  0.1%)
Orbital Transformation      ....       0.000 sec  (  0.0%)
Orbital Orthonormalization  ....       0.002 sec  (  0.1%)
DIIS solution               ....       0.096 sec  (  2.2%)
Grid generation             ....       0.349 sec  (  7.9%)

Maximum memory used throughout the entire SCF-calculation: 58.5 MB


-------------------------------------------------------------------------------
                          DFT DISPERSION CORRECTION                            
                                                                               
                              DFTD3 V3.1  Rev 1                                
                              USING zero damping                               
-------------------------------------------------------------------------------
The omegaB97X-D3 functional is recognized. Fit by Chai et al.
Active option DFTDOPT                   ...         3   

molecular C6(AA) [au] = 107.003999 


            DFT-D V3
 parameters
 s6 scaling factor         :     1.0000 
 rs6 scaling factor        :     1.2810 
 s8 scaling factor         :     1.0000 
 rs8 scaling factor        :     1.0940 
 Damping factor alpha6     :    14.0000 
 Damping factor alpha8     :    16.0000 
 ad hoc parameters k1-k3   :    16.0000     1.3333    -4.0000 

 Edisp/kcal,au: -0.004886186927  -0.000007786634 
 E6   /kcal   :  -0.000759842 
 E8   /kcal   :  -0.004126345 
 % E8         :  84.449188369 

-------------------------   ----------------
Dispersion correction           -0.000007787
-------------------------   ----------------


-------------------------   --------------------
FINAL SINGLE POINT ENERGY       -39.807382882154
-------------------------   --------------------

                                *** OPTIMIZATION RUN DONE ***

                            ***************************************
                            *     ORCA property calculations      *
                            ***************************************

                                    ---------------------
                                    Active property flags
                                    ---------------------
   (+) Dipole Moment


------------------------------------------------------------------------------
                       ORCA ELECTRIC PROPERTIES CALCULATION
------------------------------------------------------------------------------

Dipole Moment Calculation                       ... on
Quadrupole Moment Calculation                   ... off
Polarizability Calculation                      ... off
GBWName                                         ... /beegfs/scratch/ispackman/PFAS_EPR_calcs/benchmark/JChemEd_CF3_radical/CH3_radical_99.5_degrees_IN-PROGRESS/CH3_radical_99.5_degrees.gbw
Electron density                                ... /beegfs/scratch/ispackman/PFAS_EPR_calcs/benchmark/JChemEd_CF3_radical/CH3_radical_99.5_degrees_IN-PROGRESS/CH3_radical_99.5_degrees.scfp
The origin for moment calculation is the CENTER OF MASS  = ( 0.000015,  0.000000 -0.185173)

-------------
DIPOLE MOMENT
-------------
                                X             Y             Z
Electronic contribution:      0.00002      -0.00000       0.86268
Nuclear contribution   :     -0.00003      -0.00000      -1.16658
                        -----------------------------------------
Total Dipole Moment    :     -0.00002      -0.00000      -0.30390
                        -----------------------------------------
Magnitude (a.u.)       :      0.30390
Magnitude (Debye)      :      0.77246



--------------------
Rotational spectrum 
--------------------
 
Rotational constants in cm-1:     8.159554     8.159306     5.953738 
Rotational constants in MHz : 244617.267555 244609.826709 178488.573273 

 Dipole components along the rotational axes: 
x,y,z [a.u.] :     0.000000    -0.000028    -0.303903 
x,y,z [Debye]:     0.000000    -0.000070    -0.772459 

 


           ************************************************************
           *        Program running with 18 parallel MPI-processes    *
           *              working on a common directory               *
           ************************************************************

-------------------------------------------------------------------------------
                               ORCA SCF HESSIAN
-------------------------------------------------------------------------------

                   --------- SHARK INITIALIZATION DONE ---------

Hessian of the Kohn-Sham DFT energy:
Kohn-Sham wavefunction type                      ... UKS
Hartree-Fock exchange scaling                    ...    0.196
Number of operators                              ...    2
Number of atoms                                  ...    4
Basis set dimensions                             ...   64
Integral neglect threshold                       ... 2.5e-11
Integral primitive cutoff                        ... 2.5e-12

Setting up DFT Hessian calculations              ... 

HESS GRID
---------

General Integration Accuracy     IntAcc      ... 4.629
Radial Grid Type                 RadialGrid  ... OptM3 with GC (2021)
Angular Grid (max. ang.)         AngularGrid ... 5 (Lebedev-434)
Angular grid pruning method      GridPruning ... 4 (adaptive)
Weight generation scheme         WeightScheme... Becke
Basis function cutoff            BFCut       ... 1.0000e-11
Integration weight cutoff        WCut        ... 1.0000e-14
Angular grids for H and He will be reduced by one unit
Partially contracted basis set               ... off
Rotationally invariant grid construction     ... off

Total number of grid points                  ...    27252
Total number of batches                      ...      428
Average number of points per batch           ...       63
Average number of grid points per atom       ...     6813

Building densities                               ... done   (      0.0 sec)
Calculating rho(r) on the grid                   ... done   (      0.1 sec)
Building xc-kernel on the grid                   ... done   (      0.1 sec)
                                                     done   (      0.4 sec)

Nuclear repulsion Hessian  (SHARK)               ... done   (      0.0 sec)

----------------------------------------------
Forming right-hand sides of CP-SCF equations     ...
----------------------------------------------
One electron integral derivatives  (SHARK)       ... done   (      0.0 sec)
Transforming the overlap derivative matrices     ... done   (      0.0 sec)
Making the Q(x) pseudodensities                  ... done   (      0.0 sec)
Adding the E*S(x)*S(y) terms to the Hessian      ... done   (      0.0 sec)
Calculating energy weighted overlap derivatives  ... done   (      0.0 sec)
Two electron integral derivatives (SHARK-RI)     ... done   (      0.5 sec)
Exchange-correlation integral derivatives        ... done   (      0.4 sec)
tr(F(y)Q(x)) contribution to the Hessian         ... done   (      0.0 sec)
Response fock operator R(S(x)) (SHARK-RIJCOSX)   ... done   (      0.6 sec)
XC Response fock operator R(S(x))                ... done   (      0.1 sec)
tr(F(y)S(x)) contribution to the Hessian         ... done   (      0.0 sec)
Transforming and finalizing RHSs                 ... done   (      0.0 sec)

----------------------------------------------
Solving the CP-SCF equations (RIJCOSX)           ...
----------------------------------------------
     CP-SCF ITERATION   0:   1.2618e-01 (   0.3 sec   0/ 12 done)
     CP-SCF ITERATION   1:   3.0410e-02 (   0.3 sec   0/ 12 done)
     CP-SCF ITERATION   2:   1.0875e-02 (   0.3 sec   0/ 12 done)
     CP-SCF ITERATION   3:   3.7087e-03 (   0.3 sec   0/ 12 done)
     CP-SCF ITERATION   4:   5.9668e-04 (   0.3 sec   1/ 12 done)
     CP-SCF ITERATION   5:   1.3707e-04 (   0.3 sec  10/ 12 done)
     CP-SCF ITERATION   6:   2.9702e-05 (   0.3 sec  12/ 12 done)
                    *** THE CP-SCF HAS CONVERGED ***

                                                 ... done   (      2.2 sec)
Forming perturbed density Hessian contributions  ... done   (      0.0 sec)
2nd integral derivative contribs (SHARK-RI)      ... done   (      0.7 sec)
Exchange-correlation Hessian                     ... done   (      0.3 sec)
Dispersion correction in the Hessian             ... done   (      0.1 sec)
Dipole derivatives                               ... (center of mass:  0.000015,  0.000000 -0.185173)done   (      0.1 sec)

Total SCF Hessian time: 0 days 0 hours 0 min 6 sec 

Writing the Hessian file to the disk             ... done


Maximum memory used throughout the entire SCFHESS-calculation: 109.4 MB

-----------------------
VIBRATIONAL FREQUENCIES
-----------------------

Scaling factor for frequencies =  1.000000000  (already applied!)

   0:         0.00 cm**-1
   1:         0.00 cm**-1
   2:         0.00 cm**-1
   3:         0.00 cm**-1
   4:         0.00 cm**-1
   5:         0.00 cm**-1
   6:      1326.47 cm**-1
   7:      1392.06 cm**-1
   8:      1393.93 cm**-1
   9:      3046.09 cm**-1
  10:      3081.95 cm**-1
  11:      3082.17 cm**-1


------------
NORMAL MODES
------------

These modes are the Cartesian displacements weighted by the diagonal matrix
M(i,i)=1/sqrt(m[i]) where m[i] is the mass of the displaced atom
Thus, these vectors are normalized but *not* orthogonal

                  0          1          2          3          4          5    
      0       0.000000   0.000000   0.000000   0.000000   0.000000   0.000000
      1       0.000000   0.000000   0.000000   0.000000   0.000000   0.000000
      2       0.000000   0.000000   0.000000   0.000000   0.000000   0.000000
      3       0.000000   0.000000   0.000000   0.000000   0.000000   0.000000
      4       0.000000   0.000000   0.000000   0.000000   0.000000   0.000000
      5       0.000000   0.000000   0.000000   0.000000   0.000000   0.000000
      6       0.000000   0.000000   0.000000   0.000000   0.000000   0.000000
      7       0.000000   0.000000   0.000000   0.000000   0.000000   0.000000
      8       0.000000   0.000000   0.000000   0.000000   0.000000   0.000000
      9       0.000000   0.000000   0.000000   0.000000   0.000000   0.000000
     10       0.000000   0.000000   0.000000   0.000000   0.000000   0.000000
     11       0.000000   0.000000   0.000000   0.000000   0.000000   0.000000
                  6          7          8          9         10         11    
      0       0.000877  -0.000002   0.071248   0.000453  -0.085404  -0.000019
      1       0.000000   0.071282   0.000002  -0.000000  -0.000019   0.085380
      2      -0.128431   0.000000   0.001429  -0.054722  -0.000292  -0.000000
      3       0.262134  -0.000005   0.167404  -0.537785   0.723088   0.000157
      4      -0.000003  -0.736333  -0.000019  -0.000000  -0.000010   0.047888
      5       0.513865  -0.000009   0.297800   0.219283  -0.362611  -0.000079
      6      -0.136291  -0.392461  -0.508195   0.266194   0.147203   0.335193
      7       0.220191  -0.056510  -0.395065  -0.460620  -0.337502  -0.532698
      8       0.508240   0.262938  -0.157409   0.216383   0.182973   0.314983
      9      -0.136288   0.392488  -0.508175   0.266196   0.147350  -0.335127
     10      -0.220191  -0.056529   0.395062   0.460622   0.337735  -0.532549
     11       0.508239  -0.262933  -0.157422   0.216384   0.183112  -0.314901


-----------
IR SPECTRUM
-----------

 Mode   freq       eps      Int      T**2         TX        TY        TZ
       cm**-1   L/(mol*cm) km/mol    a.u.
----------------------------------------------------------------------------
  6:   1326.47   0.001558    7.87  0.000367  (-0.000206 -0.000000  0.019143)
  7:   1392.06   0.000954    4.82  0.000214  ( 0.000000 -0.014626 -0.000000)
  8:   1393.93   0.000976    4.93  0.000218  (-0.014776 -0.000000 -0.000286)
  9:   3046.09   0.000016    0.08  0.000002  ( 0.000188 -0.000000 -0.001249)
 10:   3081.95   0.007384   37.31  0.000748  (-0.027343 -0.000006 -0.000058)
 11:   3082.17   0.007553   38.17  0.000765  (-0.000006  0.027653 -0.000000)

* The epsilon (eps) is given for a Dirac delta lineshape.
** The dipole moment derivative (T) already includes vibrational overlap.

The first frequency considered to be a vibration is 6
The total number of vibrations considered is 6


--------------------------
THERMOCHEMISTRY AT 298.15K
--------------------------

Temperature         ... 298.15 K
Pressure            ... 1.00 atm
Total Mass          ... 15.03 AMU

Throughout the following assumptions are being made:
  (1) The electronic state is orbitally nondegenerate
      but the spin degeneracy is treated
  (2) There are no thermally accessible electronically excited states
  (3) Hindered rotations indicated by low frequency modes are not
      treated as such but are treated as vibrations and this may
      cause some error
  (4) All equations used are the standard statistical mechanics
      equations for an ideal gas
  (5) All vibrations are strictly harmonic

freq.    1326.47  E(vib)   ...       0.01 
freq.    1392.06  E(vib)   ...       0.00 
freq.    1393.93  E(vib)   ...       0.00 
freq.    3046.09  E(vib)   ...       0.00 
freq.    3081.95  E(vib)   ...       0.00 
freq.    3082.17  E(vib)   ...       0.00 

------------
INNER ENERGY
------------

The inner energy is: U= E(el) + E(ZPE) + E(vib) + E(rot) + E(trans)
    E(el)   - is the total energy from the electronic structure calculation
              = E(kin-el) + E(nuc-el) + E(el-el) + E(nuc-nuc)
    E(ZPE)  - the the zero temperature vibrational energy from the frequency calculation
    E(vib)  - the the finite temperature correction to E(ZPE) due to population
              of excited vibrational states
    E(rot)  - is the rotational thermal energy
    E(trans)- is the translational thermal energy

Summary of contributions to the inner energy U:
Electronic energy                ...    -39.80738288 Eh
Zero point energy                ...      0.03035127 Eh      19.05 kcal/mol
Thermal vibrational correction   ...      0.00002537 Eh       0.02 kcal/mol
Thermal rotational correction    ...      0.00141627 Eh       0.89 kcal/mol
Thermal translational correction ...      0.00141627 Eh       0.89 kcal/mol
-----------------------------------------------------------------------
Total thermal energy                    -39.77417370 Eh


Summary of corrections to the electronic energy:
(perhaps to be used in another calculation)
Total thermal correction                  0.00285791 Eh       1.79 kcal/mol
Non-thermal (ZPE) correction              0.03035127 Eh      19.05 kcal/mol
-----------------------------------------------------------------------
Total correction                          0.03320919 Eh      20.84 kcal/mol


--------
ENTHALPY
--------

The enthalpy is H = U + kB*T
                kB is Boltzmann's constant
Total free energy                 ...    -39.77417370 Eh 
Thermal Enthalpy correction       ...      0.00094421 Eh       0.59 kcal/mol
-----------------------------------------------------------------------
Total Enthalpy                    ...    -39.77322949 Eh


Note: Rotational entropy computed according to Herzberg 
Infrared and Raman Spectra, Chapter V,1, Van Nostrand Reinhold, 1945 
Point Group:  C3v, Symmetry Number:   3  
Rotational constants in cm-1:     8.159554     8.159306     5.953738 

Vibrational entropy computed according to the QRRHO of S. Grimme
Chem.Eur.J. 2012 18 9955


-------
ENTROPY
-------

The entropy contributions are T*S = T*(S(el)+S(vib)+S(rot)+S(trans))
     S(el)   - electronic entropy
     S(vib)  - vibrational entropy
     S(rot)  - rotational entropy
     S(trans)- translational entropy
The entropies will be listed as multiplied by the temperature to get
units of energy

Electronic entropy                ...      0.00065446 Eh      0.41 kcal/mol
Vibrational entropy               ...      0.00002922 Eh      0.02 kcal/mol
Rotational entropy                ...      0.00564930 Eh      3.54 kcal/mol
Translational entropy             ...      0.01618771 Eh     10.16 kcal/mol
-----------------------------------------------------------------------
Final entropy term                ...      0.02252069 Eh     14.13 kcal/mol

In case the symmetry of your molecule has not been determined correctly
or in case you have a reason to use a different symmetry number we print 
out the resulting rotational entropy values for sn=1,12 :
 --------------------------------------------------------
|  sn= 1 | S(rot)=       0.00668659 Eh      4.20 kcal/mol|
|  sn= 2 | S(rot)=       0.00603214 Eh      3.79 kcal/mol|
|  sn= 3 | S(rot)=       0.00564930 Eh      3.54 kcal/mol|
|  sn= 4 | S(rot)=       0.00537768 Eh      3.37 kcal/mol|
|  sn= 5 | S(rot)=       0.00516699 Eh      3.24 kcal/mol|
|  sn= 6 | S(rot)=       0.00499485 Eh      3.13 kcal/mol|
|  sn= 7 | S(rot)=       0.00484930 Eh      3.04 kcal/mol|
|  sn= 8 | S(rot)=       0.00472322 Eh      2.96 kcal/mol|
|  sn= 9 | S(rot)=       0.00461201 Eh      2.89 kcal/mol|
|  sn=10 | S(rot)=       0.00451253 Eh      2.83 kcal/mol|
|  sn=11 | S(rot)=       0.00442254 Eh      2.78 kcal/mol|
|  sn=12 | S(rot)=       0.00434039 Eh      2.72 kcal/mol|
 --------------------------------------------------------


-------------------
GIBBS FREE ENERGY
-------------------

The Gibbs free energy is G = H - T*S

Total enthalpy                    ...    -39.77322949 Eh 
Total entropy correction          ...     -0.02252069 Eh    -14.13 kcal/mol
-----------------------------------------------------------------------
Final Gibbs free energy         ...    -39.79575017 Eh

For completeness - the Gibbs free energy minus the electronic energy
G-E(el)                           ...      0.01163271 Eh      7.30 kcal/mol


Timings for individual modules:

Sum of individual times         ...       63.397 sec (=   1.057 min)
GTO integral calculation        ...       11.540 sec (=   0.192 min)  18.2 %
SCF iterations                  ...       32.982 sec (=   0.550 min)  52.0 %
SCF Gradient evaluation         ...        9.406 sec (=   0.157 min)  14.8 %
Geometry relaxation             ...        0.177 sec (=   0.003 min)   0.3 %
Analytical frequency calculation...        9.292 sec (=   0.155 min)  14.7 %
                             ****ORCA TERMINATED NORMALLY****
TOTAL RUN TIME: 0 days 0 hours 1 minutes 14 seconds 497 msec

slurmID:    32260141
totalRuntime[s]:    74.548462220
