
                                 *****************
                                 * O   R   C   A *
                                 *****************

                                            #,                                       
                                            ###                                      
                                            ####                                     
                                            #####                                    
                                            ######                                   
                                           ########,                                 
                                     ,,################,,,,,                         
                               ,,#################################,,                 
                          ,,##########################################,,             
                       ,#########################################, ''#####,          
                    ,#############################################,,   '####,        
                  ,##################################################,,,,####,       
                ,###########''''           ''''###############################       
              ,#####''   ,,,,##########,,,,          '''####'''          '####       
            ,##' ,,,,###########################,,,                        '##       
           ' ,,###''''                  '''############,,,                           
         ,,##''                                '''############,,,,        ,,,,,,###''
      ,#''                                            '''#######################'''  
     '                                                          ''''####''''         
             ,#######,   #######,   ,#######,      ##                                
            ,#'     '#,  ##    ##  ,#'     '#,    #''#        ######   ,####,        
            ##       ##  ##   ,#'  ##            #'  '#       #        #'  '#        
            ##       ##  #######   ##           ,######,      #####,   #    #        
            '#,     ,#'  ##    ##  '#,     ,#' ,#      #,         ##   #,  ,#        
             '#######'   ##     ##  '#######'  #'      '#     #####' # '####'        



                  #######################################################
                  #                        -***-                        #
                  #          Department of theory and spectroscopy      #
                  #    Directorship and core code : Frank Neese         #
                  #        Max Planck Institute fuer Kohlenforschung    #
                  #                Kaiser Wilhelm Platz 1               #
                  #                 D-45470 Muelheim/Ruhr               #
                  #                      Germany                        #
                  #                                                     #
                  #                  All rights reserved                #
                  #                        -***-                        #
                  #######################################################


                         Program Version 5.0.4 -  RELEASE  -


 With contributions from (in alphabetic order):
   Daniel Aravena         : Magnetic Suceptibility
   Michael Atanasov       : Ab Initio Ligand Field Theory (pilot matlab implementation)
   Alexander A. Auer      : GIAO ZORA, VPT2 properties, NMR spectrum
   Ute Becker             : Parallelization
   Giovanni Bistoni       : ED, misc. LED, open-shell LED, HFLD
   Martin Brehm           : Molecular dynamics
   Dmytro Bykov           : SCF Hessian
   Vijay G. Chilkuri      : MRCI spin determinant printing, contributions to CSF-ICE
   Dipayan Datta          : RHF DLPNO-CCSD density
   Achintya Kumar Dutta   : EOM-CC, STEOM-CC
   Dmitry Ganyushin       : Spin-Orbit,Spin-Spin,Magnetic field MRCI
   Miquel Garcia          : C-PCM and meta-GGA Hessian, CC/C-PCM, Gaussian charge scheme
   Yang Guo               : DLPNO-NEVPT2, F12-NEVPT2, CIM, IAO-localization
   Andreas Hansen         : Spin unrestricted coupled pair/coupled cluster methods
   Benjamin Helmich-Paris : MC-RPA, TRAH-SCF, COSX integrals
   Lee Huntington         : MR-EOM, pCC
   Robert Izsak           : Overlap fitted RIJCOSX, COSX-SCS-MP3, EOM
   Marcus Kettner         : VPT2
   Christian Kollmar      : KDIIS, OOCD, Brueckner-CCSD(T), CCSD density, CASPT2, CASPT2-K
   Simone Kossmann        : Meta GGA functionals, TD-DFT gradient, OOMP2, MP2 Hessian
   Martin Krupicka        : Initial AUTO-CI
   Lucas Lang             : DCDCAS
   Marvin Lechner         : AUTO-CI (C++ implementation), FIC-MRCC
   Dagmar Lenk            : GEPOL surface, SMD
   Dimitrios Liakos       : Extrapolation schemes; Compound Job, initial MDCI parallelization
   Dimitrios Manganas     : Further ROCIS development; embedding schemes
   Dimitrios Pantazis     : SARC Basis sets
   Anastasios Papadopoulos: AUTO-CI, single reference methods and gradients
   Taras Petrenko         : DFT Hessian,TD-DFT gradient, ASA, ECA, R-Raman, ABS, FL, XAS/XES, NRVS
   Peter Pinski           : DLPNO-MP2, DLPNO-MP2 Gradient
   Christoph Reimann      : Effective Core Potentials
   Marius Retegan         : Local ZFS, SOC
   Christoph Riplinger    : Optimizer, TS searches, QM/MM, DLPNO-CCSD(T), (RO)-DLPNO pert. Triples
   Tobias Risthaus        : Range-separated hybrids, TD-DFT gradient, RPA, STAB
   Michael Roemelt        : Original ROCIS implementation
   Masaaki Saitow         : Open-shell DLPNO-CCSD energy and density
   Barbara Sandhoefer     : DKH picture change effects
   Avijit Sen             : IP-ROCIS
   Kantharuban Sivalingam : CASSCF convergence, NEVPT2, FIC-MRCI
   Bernardo de Souza      : ESD, SOC TD-DFT
   Georgi Stoychev        : AutoAux, RI-MP2 NMR, DLPNO-MP2 response
   Willem Van den Heuvel  : Paramagnetic NMR
   Boris Wezisla          : Elementary symmetry handling
   Frank Wennmohs         : Technical directorship


 We gratefully acknowledge several colleagues who have allowed us to
 interface, adapt or use parts of their codes:
   Stefan Grimme, W. Hujo, H. Kruse, P. Pracht,  : VdW corrections, initial TS optimization,
                  C. Bannwarth, S. Ehlert          DFT functionals, gCP, sTDA/sTD-DF
   Ed Valeev, F. Pavosevic, A. Kumar             : LibInt (2-el integral package), F12 methods
   Garnet Chan, S. Sharma, J. Yang, R. Olivares  : DMRG
   Ulf Ekstrom                                   : XCFun DFT Library
   Mihaly Kallay                                 : mrcc  (arbitrary order and MRCC methods)
   Jiri Pittner, Ondrej Demel                    : Mk-CCSD
   Frank Weinhold                                : gennbo (NPA and NBO analysis)
   Christopher J. Cramer and Donald G. Truhlar   : smd solvation model
   Lars Goerigk                                  : TD-DFT with DH, B97 family of functionals
   V. Asgeirsson, H. Jonsson                     : NEB implementation
   FAccTs GmbH                                   : IRC, NEB, NEB-TS, DLPNO-Multilevel, CI-OPT
                                                   MM, QMMM, 2- and 3-layer-ONIOM, Crystal-QMMM,
                                                   LR-CPCM, SF, NACMEs, symmetry and pop. for TD-DFT,
                                                   nearIR, NL-DFT gradient (VV10), updates on ESD,
                                                   ML-optimized integration grids
   S Lehtola, MJT Oliveira, MAL Marques          : LibXC Library
   Liviu Ungur et al                             : ANISO software


 Your calculation uses the libint2 library for the computation of 2-el integrals
 For citations please refer to: http://libint.valeyev.net

 Your ORCA version has been built with support for libXC version: 5.1.0
 For citations please refer to: https://tddft.org/programs/libxc/

 This ORCA versions uses:
   CBLAS   interface :  Fast vector & matrix operations
   LAPACKE interface :  Fast linear algebra routines
   SCALAPACK package :  Parallel linear algebra routines
   Shared memory     :  Shared parallel matrices
   BLAS/LAPACK       :  OpenBLAS 0.3.15  USE64BITINT DYNAMIC_ARCH NO_AFFINITY SkylakeX SINGLE_THREADED
        Core in use  :  SkylakeX
   Copyright (c) 2011-2014, The OpenBLAS Project


Your calculation utilizes the atom-pairwise dispersion correction
with the zero-damping scheme (D30)
Cite in your paper:
S.Grimme, J.Antony, S.Ehrlich and H.Krieg, J.Chem.Phys., 132, (2010), 154104 
   

XCFun DFT library Copyright 2009-2010 Ulf Ekstrom and contributors.
See http://admol.org/xcfun for more information.
This is free software; see the source code for copying conditions.
There is ABSOLUTELY NO WARRANTY; not even for MERCHANTABILITY or FITNESS FOR A PARTICULAR PURPOSE.
For details see the documentation.
Scientific users of this library should cite U. Ekstrom, L. Visscher, R. Bast, A. J. Thorvaldsen and K. Ruud;
J.Chem.Theor.Comp. 2010, DOI: 10.1021/ct100117s
XCFun Version 0.99 

================================================================================

----- Orbital basis set information -----
Your calculation utilizes the basis: def2-TZVPD
   F. Weigend and R. Ahlrichs, Phys. Chem. Chem. Phys. 7, 3297 (2005).
   D. Rappoport and F. Furche, J. Chem. Phys. 133 134105 (2010).

----- AuxJ basis set information -----
Your calculation utilizes the auxiliary basis: def2/J
   F. Weigend, Phys. Chem. Chem. Phys. 8, 1057 (2006).

================================================================================
                                        WARNINGS
                       Please study these warnings very carefully!
================================================================================


WARNING: Geometry Optimization
  ===> : Switching off AutoStart
         For restart on a previous wavefunction, please use MOREAD

INFO   : the flag for use of the SHARK integral package has been found!

================================================================================
                                       INPUT FILE
================================================================================
NAME = /beegfs/scratch/ispackman/PFAS_EPR_calcs/benchmark/JChemEd_CF3_radical/CH3_radical_114.0_degrees_IN-PROGRESS/CH3_radical_114.0_degrees.inp
|  1> ! UKS TightSCF wB97x-D3 def2-TZVPD xyzfile opt freq
|  2> 
|  3> # CH3 radical 114.0 degrees fixed
|  4> 
|  5> %maxcore 1000
|  6> %pal
|  7> nprocs 18
|  8> end
|  9> 
| 10> %geom Constraints
| 11>         { A * 0 * C }
| 12>     end
| 13> end
| 14> * xyz 0 2
| 15> C 0.00 0.00 0.00
| 16> H 1.0458864248 0.0000000000 -0.2692983222
| 17> H -0.5229432124 0.9057642134 -0.2692983222
| 18> H -0.5229432124 -0.9057642134 -0.2692983222
| 19> **                         ****END OF INPUT****
================================================================================

                       *****************************
                       * Geometry Optimization Run *
                       *****************************

Geometry optimization settings:
Update method            Update   .... BFGS
Choice of coordinates    CoordSys .... Z-matrix Internals
Initial Hessian          InHess   .... Almoef's Model

Convergence Tolerances:
Energy Change            TolE     ....  5.0000e-06 Eh
Max. Gradient            TolMAXG  ....  3.0000e-04 Eh/bohr
RMS Gradient             TolRMSG  ....  1.0000e-04 Eh/bohr
Max. Displacement        TolMAXD  ....  4.0000e-03 bohr
RMS Displacement         TolRMSD  ....  2.0000e-03 bohr
Strict Convergence                ....  False
------------------------------------------------------------------------------
                        ORCA OPTIMIZATION COORDINATE SETUP
------------------------------------------------------------------------------

The optimization will be done in new redundant internal coordinates
Making redundant internal coordinates   ...  (new redundants) done
Evaluating the initial hessian          ...  (Almloef) done
Evaluating the coordinates              ...  done
Calculating the B-matrix                .... done
Calculating the G-matrix                .... done
Diagonalizing the G-matrix              .... done
Imposing constraints:
 Iter   0:  RMS(Cart)=    0.0000000000 RMS(Int)=    0.0000000000
CONVERGED
Will constrain atom 0 coordinate 1 
Will constrain atom 0 coordinate 2 
Will constrain atom 1 coordinate 2 
The first mode is                       ....    1
The number of degrees of freedom        ....    6
Storing new coordinates                 .... done

    -----------------------------------------------------------------
                    Redundant Internal Coordinates


    -----------------------------------------------------------------
         Definition                    Initial Value    Approx d2E/dq
    -----------------------------------------------------------------
      1. B(H   1,C   0)                  1.0800         0.373575   
      2. B(H   2,C   0)                  1.0800         0.373575   
      3. B(H   3,C   0)                  1.0800         0.373575   
      4. A(H   2,C   0,H   3)          114.0000         0.294224 C 
      5. A(H   1,C   0,H   2)          114.0000         0.294224 C 
      6. A(H   1,C   0,H   3)          114.0000         0.294224 C 
      7. I(H   1,H   3,H   2,C   0)     41.6860         0.008881   
    -----------------------------------------------------------------

Number of atoms                         .... 4
Number of degrees of freedom            .... 7

         *************************************************************
         *                GEOMETRY OPTIMIZATION CYCLE   1            *
         *************************************************************
---------------------------------
CARTESIAN COORDINATES (ANGSTROEM)
---------------------------------
  C      0.000000    0.000000    0.000000
  H      1.045886    0.000000   -0.269298
  H     -0.522943    0.905764   -0.269298
  H     -0.522943   -0.905764   -0.269298

----------------------------
CARTESIAN COORDINATES (A.U.)
----------------------------
  NO LB      ZA    FRAG     MASS         X           Y           Z
   0 C     6.0000    0    12.011    0.000000    0.000000    0.000000
   1 H     1.0000    0     1.008    1.976439    0.000000   -0.508900
   2 H     1.0000    0     1.008   -0.988219    1.711646   -0.508900
   3 H     1.0000    0     1.008   -0.988219   -1.711646   -0.508900

--------------------------------
INTERNAL COORDINATES (ANGSTROEM)
--------------------------------
 C      0   0   0     0.000000000000     0.00000000     0.00000000
 H      1   0   0     1.079999999963     0.00000000     0.00000000
 H      1   2   0     1.080000000005   114.00000000     0.00000000
 H      1   2   3     1.080000000005   114.00000000   133.28218660

---------------------------
INTERNAL COORDINATES (A.U.)
---------------------------
 C      0   0   0     0.000000000000     0.00000000     0.00000000
 H      1   0   0     2.040904224566     0.00000000     0.00000000
 H      1   2   0     2.040904224645   114.00000000     0.00000000
 H      1   2   3     2.040904224645   114.00000000   133.28218660

---------------------
BASIS SET INFORMATION
---------------------
There are 2 groups of distinct atoms

 Group   1 Type C   : 12s6p3d1f contracted to 6s3p3d1f pattern {621111/411/111/1}
 Group   2 Type H   : 5s2p contracted to 3s2p pattern {311/11}

Atom   0C    basis set group =>   1
Atom   1H    basis set group =>   2
Atom   2H    basis set group =>   2
Atom   3H    basis set group =>   2
---------------------------------
AUXILIARY/J BASIS SET INFORMATION
---------------------------------
There are 2 groups of distinct atoms

 Group   1 Type C   : 12s5p4d2f1g contracted to 6s4p3d1f1g pattern {711111/2111/211/2/1}
 Group   2 Type H   : 5s2p1d contracted to 3s1p1d pattern {311/2/1}

Atom   0C    basis set group =>   1
Atom   1H    basis set group =>   2
Atom   2H    basis set group =>   2
Atom   3H    basis set group =>   2


           ************************************************************
           *        Program running with 18 parallel MPI-processes    *
           *              working on a common directory               *
           ************************************************************
------------------------------------------------------------------------------
                           ORCA GTO INTEGRAL CALCULATION
                           -- RI-GTO INTEGRALS CHOSEN --
------------------------------------------------------------------------------
------------------------------------------------------------------------------
                   ___                                                        
                  /   \      - P O W E R E D   B Y -                         
                 /     \                                                     
                 |  |  |   _    _      __       _____    __    __             
                 |  |  |  | |  | |    /  \     |  _  \  |  |  /  |          
                  \  \/   | |  | |   /    \    | | | |  |  | /  /          
                 / \  \   | |__| |  /  /\  \   | |_| |  |  |/  /          
                |  |  |   |  __  | /  /__\  \  |    /   |      \           
                |  |  |   | |  | | |   __   |  |    \   |  |\   \          
                \     /   | |  | | |  |  |  |  | |\  \  |  | \   \       
                 \___/    |_|  |_| |__|  |__|  |_| \__\ |__|  \__/        
                                                                              
                      - O R C A' S   B I G   F R I E N D -                    
                                      &                                       
                       - I N T E G R A L  F E E D E R -                       
                                                                              
 v1 FN, 2020, v2 2021                                                         
------------------------------------------------------------------------------


Reading SHARK input file /beegfs/scratch/ispackman/PFAS_EPR_calcs/benchmark/JChemEd_CF3_radical/CH3_radical_114.0_degrees_IN-PROGRESS/CH3_radical_114.0_degrees.SHARKINP.tmp ... ok
----------------------
SHARK INTEGRAL PACKAGE
----------------------

Number of atoms                             ...      4
Number of basis functions                   ...     64
Number of shells                            ...     28
Maximum angular momentum                    ...      3
Integral batch strategy                     ... SHARK/LIBINT Hybrid
RI-J (if used) integral strategy            ... SPLIT-RIJ (Revised 2003 algorithm where possible)
Printlevel                                  ...      1
Contraction scheme used                     ... SEGMENTED contraction
Coulomb Range Separation                    ... NOT USED
Exchange Range Separation                   ... Long Range
   Mu parameter                             ...  0.250000
   Scaling (regular/separated)              ...  0.195728  0.804272
Finite Nucleus Model                        ... NOT USED
Auxiliary Coulomb fitting basis             ... AVAILABLE
   # of basis functions in Aux-J            ...     82
   # of shells in Aux-J                     ...     30
   Maximum angular momentum in Aux-J        ...      4
Auxiliary J/K fitting basis                 ... NOT available
Auxiliary Correlation fitting basis         ... NOT available
Auxiliary 'external' fitting basis          ... NOT available
Integral threshold                          ...     2.500000e-11
Primitive cut-off                           ...     2.500000e-12
Primitive pair pre-selection threshold      ...     2.500000e-12

Calculating pre-screening integrals         ... done (  0.1 sec) Dimension = 28
Organizing shell pair data                  ... done (  0.0 sec)
Shell pair information
Total number of shell pairs                 ...       406
Shell pairs after pre-screening             ...       406
Total number of primitive shell pairs       ...       977
Primitive shell pairs kept                  ...       944
          la=0 lb=0:    120 shell pairs
          la=1 lb=0:    135 shell pairs
          la=1 lb=1:     45 shell pairs
          la=2 lb=0:     45 shell pairs
          la=2 lb=1:     27 shell pairs
          la=2 lb=2:      6 shell pairs
          la=3 lb=0:     15 shell pairs
          la=3 lb=1:      9 shell pairs
          la=3 lb=2:      3 shell pairs
          la=3 lb=3:      1 shell pairs

Calculating one electron integrals          ... done (  0.0 sec)
Calculating RI/J V-Matrix + Cholesky decomp.... done (  0.0 sec)
Calculating Nuclear repulsion               ... done (  0.0 sec) ENN=      9.695969414220 Eh

SHARK setup successfully completed in   0.3 seconds

Maximum memory used throughout the entire GTOINT-calculation: 14.0 MB


           ************************************************************
           *        Program running with 18 parallel MPI-processes    *
           *              working on a common directory               *
           ************************************************************
-------------------------------------------------------------------------------
                                 ORCA SCF
-------------------------------------------------------------------------------

------------
SCF SETTINGS
------------
Hamiltonian:
 Density Functional     Method          .... DFT(GTOs)
 Exchange Functional    Exchange        .... WB97X-D3
 Correlation Functional Correlation     .... WB97X-D3
 Gradients option       PostSCFGGA      .... off
 Hybrid DFT is turned on
   Fraction HF Exchange ScalHFX         ....  0.195728
   Scaling of DF-GGA-X  ScalDFX         ....  0.000000
   Scaling of DF-GGA-C  ScalDFC         ....  1.000000
   Scaling of DF-LDA-C  ScalLDAC        ....  1.000000
   Perturbative correction              ....  0.000000
   Density functional embedding theory  .... OFF
 Long-range corrected/Screened/Range-Separated Hybrid DFT is turned on
   Amount of maximum screened exact exchange              ....  0.804272
   Range separation parameter mu (erf(mu*r12)/r12)        ....  0.250000
 RI-approximation to the Coulomb term is turned on
   Number of AuxJ basis functions       .... 82
   RIJ-COSX (HFX calculated with COS-X)).... on


General Settings:
 Integral files         IntName         .... /beegfs/scratch/ispackman/PFAS_EPR_calcs/benchmark/JChemEd_CF3_radical/CH3_radical_114.0_degrees_IN-PROGRESS/CH3_radical_114.0_degrees
 Hartree-Fock type      HFTyp           .... UHF
 Total Charge           Charge          ....    0
 Multiplicity           Mult            ....    2
 Number of Electrons    NEL             ....    9
 Basis Dimension        Dim             ....   64
 Nuclear Repulsion      ENuc            ....      9.6959694142 Eh

Convergence Acceleration:
 DIIS                   CNVDIIS         .... on
   Start iteration      DIISMaxIt       ....    12
   Startup error        DIISStart       ....  0.200000
   # of expansion vecs  DIISMaxEq       ....     5
   Bias factor          DIISBfac        ....   1.050
   Max. coefficient     DIISMaxC        ....  10.000
 Trust-Rad. Augm. Hess. CNVTRAH         .... auto
   Auto Start mean grad. ratio tolernc. ....  1.125000
   Auto Start start iteration           ....    20
   Auto Start num. interpolation iter.  ....    10
   Max. Number of Micro iterations      ....    16
   Max. Number of Macro iterations      .... Maxiter - #DIIS iter
   Number of Davidson start vectors     ....     2
   Converg. threshold I  (grad. norm)   ....   1.000e-05
   Converg. threshold II (energy diff.) ....   1.000e-08
   Grad. Scal. Fac. for Micro threshold ....   0.100
   Minimum threshold for Micro iter.    ....   0.010
   NR start threshold (gradient norm)   ....   0.001
   Initial trust radius                 ....   0.400
   Minimum AH scaling param. (alpha)    ....   1.000
   Maximum AH scaling param. (alpha)    .... 1000.000
   Orbital update algorithm             .... Taylor
   White noise on init. David. guess    .... on
   Maximum white noise                  ....   0.010
   Quad. conv. algorithm                .... NR
 SOSCF                  CNVSOSCF        .... off
 Level Shifting         CNVShift        .... on
   Level shift para.    LevelShift      ....    0.2500
   Turn off err/grad.   ShiftErr        ....    0.0010
 Zerner damping         CNVZerner       .... off
 Static damping         CNVDamp         .... on
   Fraction old density DampFac         ....    0.7000
   Max. Damping (<1)    DampMax         ....    0.9800
   Min. Damping (>=0)   DampMin         ....    0.0000
   Turn off err/grad.   DampErr         ....    0.1000
 Fernandez-Rico         CNVRico         .... off

SCF Procedure:
 Maximum # iterations   MaxIter         ....   125
 SCF integral mode      SCFMode         .... Direct
   Integral package                     .... SHARK and LIBINT hybrid scheme
 Reset frequency        DirectResetFreq ....    20
 Integral Threshold     Thresh          ....  2.500e-11 Eh
 Primitive CutOff       TCut            ....  2.500e-12 Eh

Convergence Tolerance:
 Convergence Check Mode ConvCheckMode   .... Total+1el-Energy
 Convergence forced     ConvForced      .... 0
 Energy Change          TolE            ....  1.000e-08 Eh
 1-El. energy change                    ....  1.000e-05 Eh
 DIIS Error             TolErr          ....  5.000e-07


Diagonalization of the overlap matrix:
Smallest eigenvalue                        ... 5.877e-05
Time for diagonalization                   ...    0.002 sec
Threshold for overlap eigenvalues          ... 1.000e-08
Number of eigenvalues below threshold      ... 0
Time for construction of square roots      ...    0.012 sec
Total time needed                          ...    0.015 sec

Time for model grid setup =    0.031 sec

------------------------------
INITIAL GUESS: MODEL POTENTIAL
------------------------------
Loading Hartree-Fock densities                     ... done
Calculating cut-offs                               ... done
Initializing the effective Hamiltonian             ... done
Setting up the integral package (SHARK)            ... done
Starting the Coulomb interaction                   ... done (   0.1 sec)
Reading the grid                                   ... done
Mapping shells                                     ... done
Starting the XC term evaluation                    ... done (   0.0 sec)
  promolecular density results
     # of electrons  =      8.998170271
     EX              =     -5.933205959
     EC              =     -0.259176973
     EX+EC           =     -6.192382932
Transforming the Hamiltonian                       ... done (   0.0 sec)
Diagonalizing the Hamiltonian                      ... done (   0.0 sec)
Back transforming the eigenvectors                 ... done (   0.0 sec)
Now organizing SCF variables                       ... done
                      ------------------
                      INITIAL GUESS DONE (   0.1 sec)
                      ------------------
-------------------
DFT GRID GENERATION
-------------------

General Integration Accuracy     IntAcc      ... 4.388
Radial Grid Type                 RadialGrid  ... OptM3 with GC (2021)
Angular Grid (max. ang.)         AngularGrid ... 4 (Lebedev-302)
Angular grid pruning method      GridPruning ... 4 (adaptive)
Weight generation scheme         WeightScheme... Becke
Basis function cutoff            BFCut       ... 1.0000e-11
Integration weight cutoff        WCut        ... 1.0000e-14
Angular grids for H and He will be reduced by one unit
Partially contracted basis set               ... off
Rotationally invariant grid construction     ... off

Total number of grid points                  ...    17031
Total number of batches                      ...      268
Average number of points per batch           ...       63
Average number of grid points per atom       ...     4258
Time for grid setup =    0.093 sec

--------------------
COSX GRID GENERATION
--------------------

GRIDX 1
-------
General Integration Accuracy     IntAcc      ... 3.816
Radial Grid Type                 RadialGrid  ... OptM3 with GC (2021)
Angular Grid (max. ang.)         AngularGrid ... 1 (Lebedev-50)
Angular grid pruning method      GridPruning ... 4 (adaptive)
Weight generation scheme         WeightScheme... Becke
Basis function cutoff            BFCut       ... 1.0000e-11
Integration weight cutoff        WCut        ... 1.0000e-14
Angular grids for H and He will be reduced by one unit
Partially contracted basis set               ... on
Rotationally invariant grid construction     ... off

Total number of grid points                  ...     2150
Total number of batches                      ...       36
Average number of points per batch           ...       59
Average number of grid points per atom       ...      538
UseSFitting                                  ... on

GRIDX 2
-------
General Integration Accuracy     IntAcc      ... 4.020
Radial Grid Type                 RadialGrid  ... OptM3 with GC (2021)
Angular Grid (max. ang.)         AngularGrid ... 2 (Lebedev-110)
Angular grid pruning method      GridPruning ... 4 (adaptive)
Weight generation scheme         WeightScheme... Becke
Basis function cutoff            BFCut       ... 1.0000e-11
Integration weight cutoff        WCut        ... 1.0000e-14
Angular grids for H and He will be reduced by one unit
Partially contracted basis set               ... on
Rotationally invariant grid construction     ... off

Total number of grid points                  ...     5069
Total number of batches                      ...       81
Average number of points per batch           ...       62
Average number of grid points per atom       ...     1267
UseSFitting                                  ... on

GRIDX 3
-------
General Integration Accuracy     IntAcc      ... 4.338
Radial Grid Type                 RadialGrid  ... OptM3 with GC (2021)
Angular Grid (max. ang.)         AngularGrid ... 3 (Lebedev-194)
Angular grid pruning method      GridPruning ... 4 (adaptive)
Weight generation scheme         WeightScheme... Becke
Basis function cutoff            BFCut       ... 1.0000e-11
Integration weight cutoff        WCut        ... 1.0000e-14
Angular grids for H and He will be reduced by one unit
Partially contracted basis set               ... on
Rotationally invariant grid construction     ... off

Total number of grid points                  ...    11728
Total number of batches                      ...      185
Average number of points per batch           ...       63
Average number of grid points per atom       ...     2932
UseSFitting                                  ... on

Time for X-Grid setup             =    0.268 sec

--------------
SCF ITERATIONS
--------------
ITER       Energy         Delta-E        Max-DP      RMS-DP      [F,P]     Damp
               ***  Starting incremental Fock matrix formation  ***
  0    -39.7980754905   0.000000000000 0.02279091  0.00074482  0.0786022 0.7000
  1    -39.8119078315  -0.013832341036 0.02338335  0.00065101  0.0501571 0.7000
                               ***Turning on DIIS***
  2    -39.8196438424  -0.007736010904 0.05367380  0.00149678  0.0286985 0.0000
  3    -39.8327970725  -0.013153230102 0.01525562  0.00044705  0.0197574 0.0000
  4    -39.8344143238  -0.001617251302 0.00664294  0.00013867  0.0035927 0.0000
  5    -39.8344825308  -0.000068206944 0.00515254  0.00010345  0.0015804 0.0000
  6    -39.8345023171  -0.000019786314 0.00463406  0.00009207  0.0006461 0.0000
               *** Restarting incremental Fock matrix formation ***
                                   *** Resetting DIIS ***
  7    -39.8345115379  -0.000009220804 0.00084447  0.00001579  0.0000837 0.0000
  8    -39.8345116653  -0.000000127383 0.00035788  0.00000709  0.0000427 0.0000
  9    -39.8345116979  -0.000000032648 0.00001838  0.00000086  0.0000168 0.0000
 10    -39.8345117003  -0.000000002386 0.00001019  0.00000026  0.0000056 0.0000
                 **** Energy Check signals convergence ****

               *****************************************************
               *                     SUCCESS                       *
               *           SCF CONVERGED AFTER  11 CYCLES          *
               *****************************************************

Old exchange energy                            =     -2.173572658 Eh
New exchange energy                            =     -2.173578949 Eh
Exchange energy change after final integration =     -0.000006291 Eh
Total energy after final integration           =    -39.834517991 Eh
Final COS-X integration done in                =     0.115 sec

----------------
TOTAL SCF ENERGY
----------------

Total Energy       :          -39.83451799 Eh           -1083.95234 eV

Components:
Nuclear Repulsion  :            9.69596941 Eh             263.84074 eV
Electronic Energy  :          -49.53048741 Eh           -1347.79308 eV
One Electron Energy:          -71.69007090 Eh           -1950.78601 eV
Two Electron Energy:           22.15958349 Eh             602.99292 eV
Max COSX asymmetry :            0.00000032 Eh               0.00001 eV

Virial components:
Potential Energy   :          -79.47649570 Eh           -2162.66540 eV
Kinetic Energy     :           39.64197771 Eh            1078.71305 eV
Virial Ratio       :            2.00485698


DFT components:
N(Alpha)           :        5.000000395277 electrons
N(Beta)            :        4.000000474338 electrons
N(Total)           :        9.000000869615 electrons
E(XC)              :       -4.314054834710 Eh       
DFET-embed. en.    :        0.000000000000 Eh       

---------------
SCF CONVERGENCE
---------------

  Last Energy change         ...   -2.0994e-10  Tolerance :   1.0000e-08
  Last MAX-Density change    ...    0.0000e+00  Tolerance :   1.0000e-07
  Last RMS-Density change    ...    0.0000e+00  Tolerance :   5.0000e-09
  Last DIIS Error            ...    1.1713e-06  Tolerance :   5.0000e-07

             **** THE GBW FILE WAS UPDATED (/beegfs/scratch/ispackman/PFAS_EPR_calcs/benchmark/JChemEd_CF3_radical/CH3_radical_114.0_degrees_IN-PROGRESS/CH3_radical_114.0_degrees.gbw) ****
             **** DENSITY /beegfs/scratch/ispackman/PFAS_EPR_calcs/benchmark/JChemEd_CF3_radical/CH3_radical_114.0_degrees_IN-PROGRESS/CH3_radical_114.0_degrees.scfp WAS UPDATED ****
             **** ENERGY FILE WAS UPDATED (/beegfs/scratch/ispackman/PFAS_EPR_calcs/benchmark/JChemEd_CF3_radical/CH3_radical_114.0_degrees_IN-PROGRESS/CH3_radical_114.0_degrees.en.tmp) ****
----------------------
UHF SPIN CONTAMINATION
----------------------

Warning: in a DFT calculation there is little theoretical justification to 
         calculate <S**2> as in Hartree-Fock theory. We will do it anyways
         but you should keep in mind that the values have only limited relevance

Expectation value of <S**2>     :     0.753218
Ideal value S*(S+1) for S=0.5   :     0.750000
Deviation                       :     0.003218

             **** THE GBW FILE WAS UPDATED (/beegfs/scratch/ispackman/PFAS_EPR_calcs/benchmark/JChemEd_CF3_radical/CH3_radical_114.0_degrees_IN-PROGRESS/CH3_radical_114.0_degrees.gbw) ****
             **** DENSITY /beegfs/scratch/ispackman/PFAS_EPR_calcs/benchmark/JChemEd_CF3_radical/CH3_radical_114.0_degrees_IN-PROGRESS/CH3_radical_114.0_degrees.scfp WAS UPDATED ****
----------------
ORBITAL ENERGIES
----------------
                 SPIN UP ORBITALS
  NO   OCC          E(Eh)            E(eV) 
   0   1.0000     -10.288324      -279.9595 
   1   1.0000      -0.806766       -21.9532 
   2   1.0000      -0.514214       -13.9925 
   3   1.0000      -0.514184       -13.9916 
   4   1.0000      -0.345285        -9.3957 
   5   0.0000       0.076322         2.0768 
   6   0.0000       0.161421         4.3925 
   7   0.0000       0.161431         4.3928 
   8   0.0000       0.199367         5.4251 
   9   0.0000       0.199377         5.4253 
  10   0.0000       0.201195         5.4748 
  11   0.0000       0.224610         6.1120 
  12   0.0000       0.254901         6.9362 
  13   0.0000       0.254907         6.9364 
  14   0.0000       0.309417         8.4197 
  15   0.0000       0.363528         9.8921 
  16   0.0000       0.363531         9.8922 
  17   0.0000       0.369610        10.0576 
  18   0.0000       0.371653        10.1132 
  19   0.0000       0.387784        10.5521 
  20   0.0000       0.387785        10.5522 
  21   0.0000       0.433739        11.8027 
  22   0.0000       0.433746        11.8028 
  23   0.0000       0.511315        13.9136 
  24   0.0000       0.540946        14.7199 
  25   0.0000       0.542536        14.7632 
  26   0.0000       0.542538        14.7632 
  27   0.0000       0.779590        21.2137 
  28   0.0000       0.799278        21.7495 
  29   0.0000       0.799283        21.7496 
  30   0.0000       0.884364        24.0648 
  31   0.0000       0.884380        24.0652 
  32   0.0000       1.032513        28.0961 
  33   0.0000       1.101461        29.9723 
  34   0.0000       1.101528        29.9741 
  35   0.0000       1.594257        43.3819 
  36   0.0000       1.687657        45.9235 
  37   0.0000       1.737020        47.2667 
  38   0.0000       1.810777        49.2738 
  39   0.0000       1.810809        49.2746 
  40   0.0000       1.922550        52.3153 
  41   0.0000       1.922605        52.3167 
  42   0.0000       2.077457        56.5305 
  43   0.0000       2.269238        61.7491 
  44   0.0000       2.402275        65.3692 
  45   0.0000       2.402364        65.3716 
  46   0.0000       2.457837        66.8811 
  47   0.0000       2.457928        66.8836 
  48   0.0000       2.715799        73.9007 
  49   0.0000       2.715853        73.9021 
  50   0.0000       2.816546        76.6421 
  51   0.0000       3.086282        83.9820 
  52   0.0000       3.164260        86.1039 
  53   0.0000       3.164266        86.1041 
  54   0.0000       3.299610        89.7870 
  55   0.0000       3.299633        89.7876 
  56   0.0000       3.543223        96.4160 
  57   0.0000       3.543268        96.4172 
  58   0.0000       3.573633        97.2435 
  59   0.0000       3.577710        97.3544 
  60   0.0000       4.355931       118.5309 
  61   0.0000       4.355993       118.5326 
  62   0.0000       4.666577       126.9840 
  63   0.0000      22.200610       604.1093 

                 SPIN DOWN ORBITALS
  NO   OCC          E(Eh)            E(eV) 
   0   1.0000     -10.277822      -279.6738 
   1   1.0000      -0.764658       -20.8074 
   2   1.0000      -0.500731       -13.6256 
   3   1.0000      -0.500680       -13.6242 
   4   0.0000      -0.002172        -0.0591 
   5   0.0000       0.086094         2.3427 
   6   0.0000       0.165786         4.5113 
   7   0.0000       0.165796         4.5116 
   8   0.0000       0.201256         5.4765 
   9   0.0000       0.201266         5.4767 
  10   0.0000       0.229462         6.2440 
  11   0.0000       0.250673         6.8211 
  12   0.0000       0.260366         7.0849 
  13   0.0000       0.260375         7.0852 
  14   0.0000       0.320595         8.7238 
  15   0.0000       0.371741        10.1156 
  16   0.0000       0.372734        10.1426 
  17   0.0000       0.372749        10.1430 
  18   0.0000       0.376355        10.2411 
  19   0.0000       0.394352        10.7309 
  20   0.0000       0.394356        10.7310 
  21   0.0000       0.442468        12.0402 
  22   0.0000       0.442468        12.0402 
  23   0.0000       0.536181        14.5902 
  24   0.0000       0.543645        14.7933 
  25   0.0000       0.543651        14.7935 
  26   0.0000       0.557366        15.1667 
  27   0.0000       0.789843        21.4927 
  28   0.0000       0.808079        21.9889 
  29   0.0000       0.808087        21.9892 
  30   0.0000       0.912203        24.8223 
  31   0.0000       0.912214        24.8226 
  32   0.0000       1.055421        28.7195 
  33   0.0000       1.107735        30.1430 
  34   0.0000       1.107803        30.1449 
  35   0.0000       1.656123        45.0654 
  36   0.0000       1.687889        45.9298 
  37   0.0000       1.755208        47.7616 
  38   0.0000       1.820727        49.5445 
  39   0.0000       1.820779        49.5459 
  40   0.0000       1.937830        52.7310 
  41   0.0000       1.937838        52.7312 
  42   0.0000       2.092016        56.9267 
  43   0.0000       2.273754        61.8720 
  44   0.0000       2.410795        65.6011 
  45   0.0000       2.410924        65.6046 
  46   0.0000       2.468281        67.1653 
  47   0.0000       2.468343        67.1670 
  48   0.0000       2.730304        74.2954 
  49   0.0000       2.730378        74.2974 
  50   0.0000       2.856192        77.7209 
  51   0.0000       3.127954        85.1159 
  52   0.0000       3.219406        87.6045 
  53   0.0000       3.219407        87.6045 
  54   0.0000       3.335337        90.7591 
  55   0.0000       3.335411        90.7611 
  56   0.0000       3.580684        97.4354 
  57   0.0000       3.580735        97.4368 
  58   0.0000       3.592954        97.7693 
  59   0.0000       3.613899        98.3392 
  60   0.0000       4.377298       119.1123 
  61   0.0000       4.377341       119.1135 
  62   0.0000       4.691596       127.6648 
  63   0.0000      22.221092       604.6667 

                    ********************************
                    * MULLIKEN POPULATION ANALYSIS *
                    ********************************

--------------------------------------------
MULLIKEN ATOMIC CHARGES AND SPIN POPULATIONS
--------------------------------------------
   0 C :   -0.720440    0.895093
   1 H :    0.239982    0.034941
   2 H :    0.240229    0.034983
   3 H :    0.240229    0.034983
Sum of atomic charges         :    0.0000000
Sum of atomic spin populations:    1.0000000

-----------------------------------------------------
MULLIKEN REDUCED ORBITAL CHARGES AND SPIN POPULATIONS
-----------------------------------------------------
CHARGE
  0 C s       :     3.418127  s :     3.418127
      pz      :     0.928838  p :     3.266685
      px      :     1.168787
      py      :     1.169060
      dz2     :     0.003102  d :     0.034076
      dxz     :     0.006037
      dyz     :     0.006039
      dx2y2   :     0.009440
      dxy     :     0.009457
      f0      :     0.000335  f :     0.001552
      f+1     :     0.000263
      f-1     :     0.000264
      f+2     :    -0.000081
      f-2     :    -0.000082
      f+3     :     0.000853
      f-3     :     0.000000
  1 H s       :     0.712338  s :     0.712338
      pz      :     0.022966  p :     0.047680
      px      :     0.021493
      py      :     0.003221
  2 H s       :     0.712158  s :     0.712158
      pz      :     0.022902  p :     0.047613
      px      :     0.007778
      py      :     0.016933
  3 H s       :     0.712159  s :     0.712159
      pz      :     0.022902  p :     0.047612
      px      :     0.007778
      py      :     0.016932

SPIN
  0 C s       :    -0.021701  s :    -0.021701
      pz      :     0.897676  p :     0.922974
      px      :     0.012657
      py      :     0.012641
      dz2     :    -0.002914  d :    -0.004996
      dxz     :    -0.001468
      dyz     :    -0.001466
      dx2y2   :     0.000428
      dxy     :     0.000424
      f0      :    -0.000206  f :    -0.001184
      f+1     :    -0.000410
      f-1     :    -0.000411
      f+2     :    -0.000013
      f-2     :    -0.000012
      f+3     :    -0.000132
      f-3     :    -0.000000
  1 H s       :     0.007013  s :     0.007013
      pz      :     0.021749  p :     0.027928
      px      :     0.002970
      py      :     0.003208
  2 H s       :     0.007120  s :     0.007120
      pz      :     0.021681  p :     0.027863
      px      :     0.003152
      py      :     0.003030
  3 H s       :     0.007120  s :     0.007120
      pz      :     0.021681  p :     0.027863
      px      :     0.003152
      py      :     0.003030


                     *******************************
                     * LOEWDIN POPULATION ANALYSIS *
                     *******************************

-------------------------------------------
LOEWDIN ATOMIC CHARGES AND SPIN POPULATIONS
-------------------------------------------
   0 C :    0.059967    0.833775
   1 H :   -0.019995    0.055427
   2 H :   -0.019986    0.055399
   3 H :   -0.019986    0.055399

----------------------------------------------------
LOEWDIN REDUCED ORBITAL CHARGES AND SPIN POPULATIONS
----------------------------------------------------
CHARGE
  0 C s       :     2.913326  s :     2.913326
      pz      :     0.783872  p :     2.904162
      px      :     1.060166
      py      :     1.060124
      dz2     :     0.010302  d :     0.113079
      dxz     :     0.010135
      dyz     :     0.010131
      dx2y2   :     0.041249
      dxy     :     0.041263
      f0      :     0.000731  f :     0.009466
      f+1     :     0.001060
      f-1     :     0.001061
      f+2     :     0.001592
      f-2     :     0.001592
      f+3     :     0.003430
      f-3     :     0.000000
  1 H s       :     0.760830  s :     0.760830
      pz      :     0.067574  p :     0.259165
      px      :     0.124321
      py      :     0.067270
  2 H s       :     0.760839  s :     0.760839
      pz      :     0.067565  p :     0.259147
      px      :     0.081520
      py      :     0.110062
  3 H s       :     0.760839  s :     0.760839
      pz      :     0.067565  p :     0.259147
      px      :     0.081520
      py      :     0.110062

SPIN
  0 C s       :     0.050970  s :     0.050970
      pz      :     0.760028  p :     0.791642
      px      :     0.015792
      py      :     0.015823
      dz2     :    -0.001282  d :    -0.007771
      dxz     :    -0.001231
      dyz     :    -0.001228
      dx2y2   :    -0.002009
      dxy     :    -0.002020
      f0      :    -0.000174  f :    -0.001066
      f+1     :    -0.000368
      f-1     :    -0.000369
      f+2     :    -0.000080
      f-2     :    -0.000079
      f+3     :     0.000004
      f-3     :    -0.000000
  1 H s       :    -0.009765  s :    -0.009765
      pz      :     0.062469  p :     0.065192
      px      :     0.003272
      py      :    -0.000549
  2 H s       :    -0.009774  s :    -0.009774
      pz      :     0.062449  p :     0.065173
      px      :     0.000409
      py      :     0.002316
  3 H s       :    -0.009774  s :    -0.009774
      pz      :     0.062449  p :     0.065173
      px      :     0.000409
      py      :     0.002316


                      *****************************
                      * MAYER POPULATION ANALYSIS *
                      *****************************

  NA   - Mulliken gross atomic population
  ZA   - Total nuclear charge
  QA   - Mulliken gross atomic charge
  VA   - Mayer's total valence
  BVA  - Mayer's bonded valence
  FA   - Mayer's free valence

  ATOM       NA         ZA         QA         VA         BVA        FA
  0 C      6.7204     6.0000    -0.7204     3.7521     2.9160     0.8360
  1 H      0.7600     1.0000     0.2400     1.0020     1.0006     0.0014
  2 H      0.7598     1.0000     0.2402     1.0018     1.0003     0.0014
  3 H      0.7598     1.0000     0.2402     1.0018     1.0003     0.0014

  Mayer bond orders larger than 0.100000
B(  0-C ,  1-H ) :   0.9723 B(  0-C ,  2-H ) :   0.9719 B(  0-C ,  3-H ) :   0.9719 


-------
TIMINGS
-------

Total SCF time: 0 days 0 hours 0 min 7 sec 

Total time                  ....       7.611 sec
Sum of individual times     ....       6.997 sec  ( 91.9%)

Fock matrix formation       ....       5.889 sec  ( 77.4%)
  Split-RI-J                ....       0.799 sec  ( 13.6% of F)
  Chain of spheres X        ....       1.315 sec  ( 22.3% of F)
  XC integration            ....       1.161 sec  ( 19.7% of F)
    Basis function eval.    ....       0.052 sec  (  4.4% of XC)
    Density eval.           ....       0.050 sec  (  4.3% of XC)
    XC-Functional eval.     ....       0.052 sec  (  4.5% of XC)
    XC-Potential eval.      ....       0.075 sec  (  6.4% of XC)
Diagonalization             ....       0.154 sec  (  2.0%)
Density matrix formation    ....       0.009 sec  (  0.1%)
Population analysis         ....       0.114 sec  (  1.5%)
Initial guess               ....       0.108 sec  (  1.4%)
Orbital Transformation      ....       0.000 sec  (  0.0%)
Orbital Orthonormalization  ....       0.000 sec  (  0.0%)
DIIS solution               ....       0.331 sec  (  4.3%)
Grid generation             ....       0.392 sec  (  5.2%)

Maximum memory used throughout the entire SCF-calculation: 58.5 MB


-------------------------------------------------------------------------------
                          DFT DISPERSION CORRECTION                            
                                                                               
                              DFTD3 V3.1  Rev 1                                
                              USING zero damping                               
-------------------------------------------------------------------------------
The omegaB97X-D3 functional is recognized. Fit by Chai et al.
Active option DFTDOPT                   ...         3   

molecular C6(AA) [au] = 106.961688 


            DFT-D V3
 parameters
 s6 scaling factor         :     1.0000 
 rs6 scaling factor        :     1.2810 
 s8 scaling factor         :     1.0000 
 rs8 scaling factor        :     1.0940 
 Damping factor alpha6     :    14.0000 
 Damping factor alpha8     :    16.0000 
 ad hoc parameters k1-k3   :    16.0000     1.3333    -4.0000 

 Edisp/kcal,au: -0.008979092420  -0.000014309093 
 E6   /kcal   :  -0.001400383 
 E8   /kcal   :  -0.007578709 
 % E8         :  84.403956687 

-------------------------   ----------------
Dispersion correction           -0.000014309
-------------------------   ----------------


-------------------------   --------------------
FINAL SINGLE POINT ENERGY       -39.834532300486
-------------------------   --------------------



           ************************************************************
           *        Program running with 18 parallel MPI-processes    *
           *              working on a common directory               *
           ************************************************************
------------------------------------------------------------------------------
                         ORCA SCF GRADIENT CALCULATION
------------------------------------------------------------------------------

 ... reading COSX grid (gridx3)
Gradient of the Kohn-Sham DFT energy:
Kohn-Sham wavefunction type      ... UKS
Hartree-Fock exchange scaling    ...    0.196
Number of operators              ...    2
Number of atoms                  ...    4
Basis set dimensions             ...   64
Integral neglect threshold       ... 2.5e-11
Integral primitive cutoff        ... 2.5e-12
SHARK Integral package           ... ON

Nuc. rep. gradient       (SHARK) ... done (  0.0 sec)
HCore & Overlap gradient (SHARK) ... done (  0.0 sec)
RI-J gradient            (SHARK) ... done (  0.1 sec)
COSX-gradient                    ... done (  0.1 sec)
Exchange-correlation gradient    ... done
Dispersion correction            ... done

------------------
CARTESIAN GRADIENT
------------------

WARNING: THERE ARE 3 CONSTRAINED CARTESIAN COORDINATES
   1   C   :   -0.000019486    0.000000028    0.022230840
   2   H   :   -0.005683250    0.000000026   -0.007415894
   3   H   :    0.002868593   -0.004898429   -0.007412232
   4   H   :    0.002868601    0.004898412   -0.007412220

Difference to translation invariance:
           :    0.0000344581    0.0000000370   -0.0000095068

Difference to rotation invariance:
           :   -0.0000000155   -0.0000202018    0.0000000821

Norm of the cartesian gradient     ...    0.0274924419
RMS gradient                       ...    0.0079363844
MAX gradient                       ...    0.0222308397

-------
TIMINGS
-------

Total SCF gradient time            ...        0.621 sec

One electron gradient       ....       0.007 sec  (  1.1%)
RI-J Coulomb gradient       ....       0.133 sec  ( 21.4%)
COSX gradient               ....       0.126 sec  ( 20.3%)
XC gradient                 ....       0.064 sec  ( 10.4%)

Maximum memory used throughout the entire SCFGRAD-calculation: 33.6 MB
------------------------------------------------------------------------------
                         ORCA GEOMETRY RELAXATION STEP
------------------------------------------------------------------------------

Reading the OPT-File                    .... done
Getting information on internals        .... done
Copying old internal coords+grads       .... done
Making the new internal coordinates     .... (new redundants).... done
Validating the new internal coordinates .... (new redundants).... done
Calculating the B-matrix                .... done
Calculating the G,G- and P matrices     .... done
Transforming gradient to internals      .... done
Projecting the internal gradient        .... done
Number of atoms                         ....   4
Number of internal coordinates          ....   7
Current Energy                          ....   -39.834532300 Eh
Current gradient norm                   ....     0.027492442 Eh/bohr
Maximum allowed component of the step   ....  0.300
Current trust radius                    ....  0.300
Evaluating the initial hessian          ....  (Almloef) done
Projecting the Hessian                  .... done
Forming the augmented Hessian           .... done
Diagonalizing the augmented Hessian     .... done
Last element of RFO vector              ....  0.999856810
Lowest eigenvalues of augmented Hessian:
 -0.000107038  0.373574723  0.373574723  0.373681762 1000.000000000
Length of the computed step             ....  0.016924611
The final length of the internal step   ....  0.016924611
Converting the step to cartesian space:
 Initial RMS(Int)=    0.0063969015
Transforming coordinates:
 Iter   0:  RMS(Cart)=    0.0047704355 RMS(Int)=    0.0063969015
 Iter   1:  RMS(Cart)=    0.0000000000 RMS(Int)=    0.0000000000
Imposing constraints:
 Iter   0:  RMS(Cart)=    0.0000000005 RMS(Int)=    0.0000000021
CONVERGED
done
Storing new coordinates                 .... done

                                .--------------------.
          ----------------------|Geometry convergence|-------------------------
          Item                value                   Tolerance       Converged
          ---------------------------------------------------------------------
          RMS gradient        0.0023904054            0.0001000000      NO
          MAX gradient        0.0036630841            0.0003000000      NO
          RMS step            0.0063969015            0.0020000000      NO
          MAX step            0.0098026837            0.0040000000      NO
          ........................................................
          Max(Bonds)      0.0052      Max(Angles)    0.00
          Max(Dihed)        0.00      Max(Improp)    0.00
          ---------------------------------------------------------------------

The optimization has not yet converged - more geometry cycles are needed


    ---------------------------------------------------------------------------
                         Redundant Internal Coordinates
                            (Angstroem and degrees)

        Definition                    Value    dE/dq     Step     New-Value
    ----------------------------------------------------------------------------
     1. B(H   1,C   0)                1.0800 -0.003663  0.0052    1.0852   
     2. B(H   2,C   0)                1.0800 -0.003646  0.0052    1.0852   
     3. B(H   3,C   0)                1.0800 -0.003646  0.0052    1.0852   
     4. A(H   2,C   0,H   3)          114.00 -0.008932    0.00    114.00 C 
     5. A(H   1,C   0,H   2)          114.00 -0.002966    0.00    114.00 C 
     6. A(H   1,C   0,H   3)          114.00 -0.002966    0.00    114.00 C 
     7. I(H   1,H   3,H   2,C   0)     41.69  0.015202   -0.00     41.69   
    ----------------------------------------------------------------------------

         *************************************************************
         *                GEOMETRY OPTIMIZATION CYCLE   2            *
         *************************************************************
---------------------------------
CARTESIAN COORDINATES (ANGSTROEM)
---------------------------------
  C     -0.000007   -0.000000    0.000967
  H      1.050904   -0.000000   -0.269622
  H     -0.525449    0.910094   -0.269620
  H     -0.525449   -0.910094   -0.269620

----------------------------
CARTESIAN COORDINATES (A.U.)
----------------------------
  NO LB      ZA    FRAG     MASS         X           Y           Z
   0 C     6.0000    0    12.011   -0.000012   -0.000000    0.001827
   1 H     1.0000    0     1.008    1.985921   -0.000000   -0.509511
   2 H     1.0000    0     1.008   -0.992954    1.719828   -0.509508
   3 H     1.0000    0     1.008   -0.992954   -1.719828   -0.509508

--------------------------------
INTERNAL COORDINATES (ANGSTROEM)
--------------------------------
 C      0   0   0     0.000000000000     0.00000000     0.00000000
 H      1   0   0     1.085187356745     0.00000000     0.00000000
 H      1   2   0     1.085162545923   114.00000002     0.00000000
 H      1   2   3     1.085162509261   114.00000002   133.28218673

---------------------------
INTERNAL COORDINATES (A.U.)
---------------------------
 C      0   0   0     0.000000000000     0.00000000     0.00000000
 H      1   0   0     2.050706908243     0.00000000     0.00000000
 H      1   2   0     2.050660022582   114.00000002     0.00000000
 H      1   2   3     2.050659953301   114.00000002   133.28218673



           ************************************************************
           *        Program running with 18 parallel MPI-processes    *
           *              working on a common directory               *
           ************************************************************
------------------------------------------------------------------------------
                   ___                                                        
                  /   \      - P O W E R E D   B Y -                         
                 /     \                                                     
                 |  |  |   _    _      __       _____    __    __             
                 |  |  |  | |  | |    /  \     |  _  \  |  |  /  |          
                  \  \/   | |  | |   /    \    | | | |  |  | /  /          
                 / \  \   | |__| |  /  /\  \   | |_| |  |  |/  /          
                |  |  |   |  __  | /  /__\  \  |    /   |      \           
                |  |  |   | |  | | |   __   |  |    \   |  |\   \          
                \     /   | |  | | |  |  |  |  | |\  \  |  | \   \       
                 \___/    |_|  |_| |__|  |__|  |_| \__\ |__|  \__/        
                                                                              
                      - O R C A' S   B I G   F R I E N D -                    
                                      &                                       
                       - I N T E G R A L  F E E D E R -                       
                                                                              
 v1 FN, 2020, v2 2021                                                         
------------------------------------------------------------------------------


Reading SHARK input file /beegfs/scratch/ispackman/PFAS_EPR_calcs/benchmark/JChemEd_CF3_radical/CH3_radical_114.0_degrees_IN-PROGRESS/CH3_radical_114.0_degrees.SHARKINP.tmp ... ok
----------------------
SHARK INTEGRAL PACKAGE
----------------------

Number of atoms                             ...      4
Number of basis functions                   ...     64
Number of shells                            ...     28
Maximum angular momentum                    ...      3
Integral batch strategy                     ... SHARK/LIBINT Hybrid
RI-J (if used) integral strategy            ... SPLIT-RIJ (Revised 2003 algorithm where possible)
Printlevel                                  ...      1
Contraction scheme used                     ... SEGMENTED contraction
Coulomb Range Separation                    ... NOT USED
Exchange Range Separation                   ... Long Range
   Mu parameter                             ...  0.250000
   Scaling (regular/separated)              ...  0.195728  0.804272
Finite Nucleus Model                        ... NOT USED
Auxiliary Coulomb fitting basis             ... AVAILABLE
   # of basis functions in Aux-J            ...     82
   # of shells in Aux-J                     ...     30
   Maximum angular momentum in Aux-J        ...      4
Auxiliary J/K fitting basis                 ... NOT available
Auxiliary Correlation fitting basis         ... NOT available
Auxiliary 'external' fitting basis          ... NOT available
Integral threshold                          ...     2.500000e-11
Primitive cut-off                           ...     2.500000e-12
Primitive pair pre-selection threshold      ...     2.500000e-12

Calculating pre-screening integrals         ... done (  0.0 sec) Dimension = 28
Organizing shell pair data                  ... done (  0.0 sec)
Shell pair information
Total number of shell pairs                 ...       406
Shell pairs after pre-screening             ...       406
Total number of primitive shell pairs       ...       977
Primitive shell pairs kept                  ...       944
          la=0 lb=0:    120 shell pairs
          la=1 lb=0:    135 shell pairs
          la=1 lb=1:     45 shell pairs
          la=2 lb=0:     45 shell pairs
          la=2 lb=1:     27 shell pairs
          la=2 lb=2:      6 shell pairs
          la=3 lb=0:     15 shell pairs
          la=3 lb=1:      9 shell pairs
          la=3 lb=2:      3 shell pairs
          la=3 lb=3:      1 shell pairs

Calculating one electron integrals          ... done (  0.0 sec)
Calculating RI/J V-Matrix + Cholesky decomp.... done (  0.1 sec)
Calculating Nuclear repulsion               ... done (  0.0 sec) ENN=      9.649768432615 Eh

SHARK setup successfully completed in   0.3 seconds

Maximum memory used throughout the entire GTOINT-calculation: 14.0 MB


           ************************************************************
           *        Program running with 18 parallel MPI-processes    *
           *              working on a common directory               *
           ************************************************************

Diagonalization of the overlap matrix:
Smallest eigenvalue                        ... 6.068e-05
Time for diagonalization                   ...    0.002 sec
Threshold for overlap eigenvalues          ... 1.000e-08
Number of eigenvalues below threshold      ... 0
Time for construction of square roots      ...    0.021 sec
Total time needed                          ...    0.024 sec

-------------------
DFT GRID GENERATION
-------------------

General Integration Accuracy     IntAcc      ... 4.388
Radial Grid Type                 RadialGrid  ... OptM3 with GC (2021)
Angular Grid (max. ang.)         AngularGrid ... 4 (Lebedev-302)
Angular grid pruning method      GridPruning ... 4 (adaptive)
Weight generation scheme         WeightScheme... Becke
Basis function cutoff            BFCut       ... 1.0000e-11
Integration weight cutoff        WCut        ... 1.0000e-14
Angular grids for H and He will be reduced by one unit
Partially contracted basis set               ... off
Rotationally invariant grid construction     ... off

Total number of grid points                  ...    17031
Total number of batches                      ...      268
Average number of points per batch           ...       63
Average number of grid points per atom       ...     4258
Time for grid setup =    0.093 sec

--------------------
COSX GRID GENERATION
--------------------

GRIDX 1
-------
General Integration Accuracy     IntAcc      ... 3.816
Radial Grid Type                 RadialGrid  ... OptM3 with GC (2021)
Angular Grid (max. ang.)         AngularGrid ... 1 (Lebedev-50)
Angular grid pruning method      GridPruning ... 4 (adaptive)
Weight generation scheme         WeightScheme... Becke
Basis function cutoff            BFCut       ... 1.0000e-11
Integration weight cutoff        WCut        ... 1.0000e-14
Angular grids for H and He will be reduced by one unit
Partially contracted basis set               ... on
Rotationally invariant grid construction     ... off

Total number of grid points                  ...     2150
Total number of batches                      ...       36
Average number of points per batch           ...       59
Average number of grid points per atom       ...      538
UseSFitting                                  ... on

GRIDX 2
-------
General Integration Accuracy     IntAcc      ... 4.020
Radial Grid Type                 RadialGrid  ... OptM3 with GC (2021)
Angular Grid (max. ang.)         AngularGrid ... 2 (Lebedev-110)
Angular grid pruning method      GridPruning ... 4 (adaptive)
Weight generation scheme         WeightScheme... Becke
Basis function cutoff            BFCut       ... 1.0000e-11
Integration weight cutoff        WCut        ... 1.0000e-14
Angular grids for H and He will be reduced by one unit
Partially contracted basis set               ... on
Rotationally invariant grid construction     ... off

Total number of grid points                  ...     5069
Total number of batches                      ...       80
Average number of points per batch           ...       63
Average number of grid points per atom       ...     1267
UseSFitting                                  ... on

GRIDX 3
-------
General Integration Accuracy     IntAcc      ... 4.338
Radial Grid Type                 RadialGrid  ... OptM3 with GC (2021)
Angular Grid (max. ang.)         AngularGrid ... 3 (Lebedev-194)
Angular grid pruning method      GridPruning ... 4 (adaptive)
Weight generation scheme         WeightScheme... Becke
Basis function cutoff            BFCut       ... 1.0000e-11
Integration weight cutoff        WCut        ... 1.0000e-14
Angular grids for H and He will be reduced by one unit
Partially contracted basis set               ... on
Rotationally invariant grid construction     ... off

Total number of grid points                  ...    11730
Total number of batches                      ...      185
Average number of points per batch           ...       63
Average number of grid points per atom       ...     2932
UseSFitting                                  ... on

Time for X-Grid setup             =    0.259 sec

--------------
SCF ITERATIONS
--------------
ITER       Energy         Delta-E        Max-DP      RMS-DP      [F,P]     Damp
               ***  Starting incremental Fock matrix formation  ***
  0    -39.8345494636   0.000000000000 0.00101194  0.00002422  0.0013603 0.7000
  1    -39.8345543193  -0.000004855676 0.00089352  0.00002034  0.0009302 0.7000
                               ***Turning on DIIS***
  2    -39.8345575827  -0.000003263336 0.00238039  0.00005163  0.0005991 0.0000
               *** Restarting incremental Fock matrix formation ***
                                   *** Resetting DIIS ***
  3    -39.8345648751  -0.000007292455 0.00086519  0.00001804  0.0002717 0.0000
  4    -39.8345651122  -0.000000237059 0.00007651  0.00000325  0.0001287 0.0000
  5    -39.8345651962  -0.000000084016 0.00008092  0.00000213  0.0000321 0.0000
                 **** Energy Check signals convergence ****

               *****************************************************
               *                     SUCCESS                       *
               *           SCF CONVERGED AFTER   6 CYCLES          *
               *****************************************************

Old exchange energy                            =     -2.172166648 Eh
New exchange energy                            =     -2.172173095 Eh
Exchange energy change after final integration =     -0.000006447 Eh
Total energy after final integration           =    -39.834571651 Eh
Final COS-X integration done in                =     0.130 sec
Total Energy       :          -39.83457165 Eh           -1083.95380 eV
  Last Energy change         ...   -7.7108e-09  Tolerance :   1.0000e-08
  Last MAX-Density change    ...    0.0000e+00  Tolerance :   1.0000e-07
             **** THE GBW FILE WAS UPDATED (/beegfs/scratch/ispackman/PFAS_EPR_calcs/benchmark/JChemEd_CF3_radical/CH3_radical_114.0_degrees_IN-PROGRESS/CH3_radical_114.0_degrees.gbw) ****
             **** DENSITY /beegfs/scratch/ispackman/PFAS_EPR_calcs/benchmark/JChemEd_CF3_radical/CH3_radical_114.0_degrees_IN-PROGRESS/CH3_radical_114.0_degrees.scfp WAS UPDATED ****
             **** ENERGY FILE WAS UPDATED (/beegfs/scratch/ispackman/PFAS_EPR_calcs/benchmark/JChemEd_CF3_radical/CH3_radical_114.0_degrees_IN-PROGRESS/CH3_radical_114.0_degrees.en.tmp) ****
----------------------
UHF SPIN CONTAMINATION
----------------------

Warning: in a DFT calculation there is little theoretical justification to 
         calculate <S**2> as in Hartree-Fock theory. We will do it anyways
         but you should keep in mind that the values have only limited relevance

Expectation value of <S**2>     :     0.753260
Ideal value S*(S+1) for S=0.5   :     0.750000
Deviation                       :     0.003260

             **** THE GBW FILE WAS UPDATED (/beegfs/scratch/ispackman/PFAS_EPR_calcs/benchmark/JChemEd_CF3_radical/CH3_radical_114.0_degrees_IN-PROGRESS/CH3_radical_114.0_degrees.gbw) ****
             **** DENSITY /beegfs/scratch/ispackman/PFAS_EPR_calcs/benchmark/JChemEd_CF3_radical/CH3_radical_114.0_degrees_IN-PROGRESS/CH3_radical_114.0_degrees.scfp WAS UPDATED ****
Total SCF time: 0 days 0 hours 0 min 4 sec 

Maximum memory used throughout the entire SCF-calculation: 58.5 MB


-------------------------------------------------------------------------------
                          DFT DISPERSION CORRECTION                            
                                                                               
                              DFTD3 V3.1  Rev 1                                
                              USING zero damping                               
-------------------------------------------------------------------------------
-------------------------   ----------------
Dispersion correction           -0.000014866
-------------------------   ----------------


-------------------------   --------------------
FINAL SINGLE POINT ENERGY       -39.834586516952
-------------------------   --------------------



           ************************************************************
           *        Program running with 18 parallel MPI-processes    *
           *              working on a common directory               *
           ************************************************************
------------------------------------------------------------------------------
                         ORCA SCF GRADIENT CALCULATION
------------------------------------------------------------------------------

 ... reading COSX grid (gridx3)
Gradient of the Kohn-Sham DFT energy:
Kohn-Sham wavefunction type      ... UKS
Hartree-Fock exchange scaling    ...    0.196
Number of operators              ...    2
Number of atoms                  ...    4
Basis set dimensions             ...   64
Integral neglect threshold       ... 2.5e-11
Integral primitive cutoff        ... 2.5e-12
SHARK Integral package           ... ON

Nuc. rep. gradient       (SHARK) ... done (  0.0 sec)
HCore & Overlap gradient (SHARK) ... done (  0.0 sec)
RI-J gradient            (SHARK) ... done (  0.1 sec)
COSX-gradient                    ... done (  0.1 sec)
Exchange-correlation gradient    ... done
Dispersion correction            ... done

------------------
CARTESIAN GRADIENT
------------------

WARNING: THERE ARE 3 CONSTRAINED CARTESIAN COORDINATES
   1   C   :   -0.000037155   -0.000000012    0.024407052
   2   H   :   -0.002150830   -0.000000023   -0.008144139
   3   H   :    0.001110924   -0.001854580   -0.008136865
   4   H   :    0.001110920    0.001854598   -0.008136855

Difference to translation invariance:
           :    0.0000338593   -0.0000000163   -0.0000108065

Difference to rotation invariance:
           :   -0.0000000193   -0.0000213808   -0.0000000724

Norm of the cartesian gradient     ...    0.0284327790
RMS gradient                       ...    0.0082078363
MAX gradient                       ...    0.0244070523

-------
TIMINGS
-------

Total SCF gradient time            ...        0.586 sec

One electron gradient       ....       0.007 sec  (  1.1%)
RI-J Coulomb gradient       ....       0.112 sec  ( 19.2%)
COSX gradient               ....       0.115 sec  ( 19.6%)
XC gradient                 ....       0.063 sec  ( 10.7%)

Maximum memory used throughout the entire SCFGRAD-calculation: 33.6 MB
------------------------------------------------------------------------------
                         ORCA GEOMETRY RELAXATION STEP
------------------------------------------------------------------------------

Reading the OPT-File                    .... done
Getting information on internals        .... done
Copying old internal coords+grads       .... done
Making the new internal coordinates     .... (new redundants).... done
Validating the new internal coordinates .... (new redundants).... done
Calculating the B-matrix                .... done
Calculating the G,G- and P matrices     .... done
Transforming gradient to internals      .... done
Projecting the internal gradient        .... done
Number of atoms                         ....   4
Number of internal coordinates          ....   7
Current Energy                          ....   -39.834586517 Eh
Current gradient norm                   ....     0.028432779 Eh/bohr
Maximum allowed component of the step   ....  0.300
Current trust radius                    ....  0.300
Updating the Hessian (BFGS)             .... done
Forming the augmented Hessian           .... done
Diagonalizing the augmented Hessian     .... done
Last element of RFO vector              ....  0.999999959
Lowest eigenvalues of augmented Hessian:
 -0.000000030  0.367441465  0.373574723  0.373575078 999.999999955
Length of the computed step             ....  0.000287426
The final length of the internal step   ....  0.000287426
Converting the step to cartesian space:
 Initial RMS(Int)=    0.0001086367
Transforming coordinates:
 Iter   0:  RMS(Cart)=    0.0000810146 RMS(Int)=    0.0001086367
 Iter   1:  RMS(Cart)=    0.0000000000 RMS(Int)=    0.0000000000
Imposing constraints:
 Iter   0:  RMS(Cart)=    0.0000000003 RMS(Int)=    0.0000000017
CONVERGED
done
Storing new coordinates                 .... done

                                .--------------------.
          ----------------------|Geometry convergence|-------------------------
          Item                value                   Tolerance       Converged
          ---------------------------------------------------------------------
          Energy change      -0.0000542165            0.0000050000      NO
          RMS gradient        0.0000399176            0.0001000000      YES
          MAX gradient        0.0000612071            0.0003000000      YES
          RMS step            0.0001086367            0.0020000000      YES
          MAX step            0.0001665768            0.0040000000      YES
          ........................................................
          Max(Bonds)      0.0001      Max(Angles)    0.00
          Max(Dihed)        0.00      Max(Improp)    0.00
          ---------------------------------------------------------------------

       Everything but the energy has converged. However, the energy
       appears to be close enough to convergence to make sure that the
       final evaluation at the new geometry represents the equilibrium energy.
       Convergence will therefore be signaled now


                    ***********************HURRAY********************
                    ***        THE OPTIMIZATION HAS CONVERGED     ***
                    *************************************************


    ---------------------------------------------------------------------------
                         Redundant Internal Coordinates

                          --- Optimized Parameters ---  
                            (Angstroem and degrees)

        Definition                    OldVal   dE/dq     Step     FinalVal
    ----------------------------------------------------------------------------
     1. B(H   1,C   0)                1.0852 -0.000061  0.0001    1.0853   
     2. B(H   2,C   0)                1.0852 -0.000061  0.0001    1.0853   
     3. B(H   3,C   0)                1.0852 -0.000061  0.0001    1.0853   
     4. A(H   2,C   0,H   3)          114.00 -0.008791    0.00    114.00 C 
     5. A(H   1,C   0,H   2)          114.00 -0.002919    0.00    114.00 C 
     6. A(H   1,C   0,H   3)          114.00 -0.002919    0.00    114.00 C 
     7. I(H   1,H   3,H   2,C   0)     41.69  0.014963   -0.00     41.69   
    ----------------------------------------------------------------------------
                 *******************************************************
                 *** FINAL ENERGY EVALUATION AT THE STATIONARY POINT ***
                 ***               (AFTER    2 CYCLES)               ***
                 *******************************************************
---------------------------------
CARTESIAN COORDINATES (ANGSTROEM)
---------------------------------
  C     -0.000006   -0.000000    0.000983
  H      1.050989   -0.000000   -0.269627
  H     -0.525491    0.910168   -0.269626
  H     -0.525491   -0.910168   -0.269626

----------------------------
CARTESIAN COORDINATES (A.U.)
----------------------------
  NO LB      ZA    FRAG     MASS         X           Y           Z
   0 C     6.0000    0    12.011   -0.000012   -0.000000    0.001858
   1 H     1.0000    0     1.008    1.986081   -0.000000   -0.509522
   2 H     1.0000    0     1.008   -0.993034    1.719968   -0.509519
   3 H     1.0000    0     1.008   -0.993034   -1.719968   -0.509519

--------------------------------
INTERNAL COORDINATES (ANGSTROEM)
--------------------------------
 C      0   0   0     0.000000000000     0.00000000     0.00000000
 H      1   0   0     1.085274529917     0.00000000     0.00000000
 H      1   2   0     1.085250663960   114.00000005     0.00000000
 H      1   2   3     1.085250657928   114.00000005   133.28218682

---------------------------
INTERNAL COORDINATES (A.U.)
---------------------------
 C      0   0   0     0.000000000000     0.00000000     0.00000000
 H      1   0   0     2.050871641663     0.00000000     0.00000000
 H      1   2   0     2.050826541541   114.00000005     0.00000000
 H      1   2   3     2.050826530142   114.00000005   133.28218682

---------------------
BASIS SET INFORMATION
---------------------
There are 2 groups of distinct atoms

 Group   1 Type C   : 12s6p3d1f contracted to 6s3p3d1f pattern {621111/411/111/1}
 Group   2 Type H   : 5s2p contracted to 3s2p pattern {311/11}

Atom   0C    basis set group =>   1
Atom   1H    basis set group =>   2
Atom   2H    basis set group =>   2
Atom   3H    basis set group =>   2
---------------------------------
AUXILIARY/J BASIS SET INFORMATION
---------------------------------
There are 2 groups of distinct atoms

 Group   1 Type C   : 12s5p4d2f1g contracted to 6s4p3d1f1g pattern {711111/2111/211/2/1}
 Group   2 Type H   : 5s2p1d contracted to 3s1p1d pattern {311/2/1}

Atom   0C    basis set group =>   1
Atom   1H    basis set group =>   2
[...]

  NA   - Mulliken gross atomic population
  ZA   - Total nuclear charge
  QA   - Mulliken gross atomic charge
  VA   - Mayer's total valence
  BVA  - Mayer's bonded valence
  FA   - Mayer's free valence

  ATOM       NA         ZA         QA         VA         BVA        FA
  0 C      6.7166     6.0000    -0.7166     3.7538     2.9163     0.8375
  1 H      0.7613     1.0000     0.2387     1.0032     1.0018     0.0014
  2 H      0.7611     1.0000     0.2389     1.0029     1.0015     0.0014
  3 H      0.7611     1.0000     0.2389     1.0029     1.0015     0.0014

  Mayer bond orders larger than 0.100000
B(  0-C ,  1-H ) :   0.9723 B(  0-C ,  2-H ) :   0.9720 B(  0-C ,  3-H ) :   0.9720 


-------
TIMINGS
-------

Total SCF time: 0 days 0 hours 0 min 4 sec 

Total time                  ....       4.216 sec
Sum of individual times     ....       3.668 sec  ( 87.0%)

Fock matrix formation       ....       2.971 sec  ( 70.5%)
  Split-RI-J                ....       0.463 sec  ( 15.6% of F)
  Chain of spheres X        ....       0.776 sec  ( 26.1% of F)
  XC integration            ....       0.604 sec  ( 20.3% of F)
    Basis function eval.    ....       0.030 sec  (  4.9% of XC)
    Density eval.           ....       0.027 sec  (  4.5% of XC)
    XC-Functional eval.     ....       0.029 sec  (  4.7% of XC)
    XC-Potential eval.      ....       0.034 sec  (  5.6% of XC)
Diagonalization             ....       0.099 sec  (  2.3%)
Density matrix formation    ....       0.007 sec  (  0.2%)
Population analysis         ....       0.159 sec  (  3.8%)
Initial guess               ....       0.006 sec  (  0.1%)
Orbital Transformation      ....       0.000 sec  (  0.0%)
Orbital Orthonormalization  ....       0.002 sec  (  0.0%)
DIIS solution               ....       0.094 sec  (  2.2%)
Grid generation             ....       0.334 sec  (  7.9%)

Maximum memory used throughout the entire SCF-calculation: 58.5 MB


-------------------------------------------------------------------------------
                          DFT DISPERSION CORRECTION                            
                                                                               
                              DFTD3 V3.1  Rev 1                                
                              USING zero damping                               
-------------------------------------------------------------------------------
The omegaB97X-D3 functional is recognized. Fit by Chai et al.
Active option DFTDOPT                   ...         3   

molecular C6(AA) [au] = 106.973685 


            DFT-D V3
 parameters
 s6 scaling factor         :     1.0000 
 rs6 scaling factor        :     1.2810 
 s8 scaling factor         :     1.0000 
 rs8 scaling factor        :     1.0940 
 Damping factor alpha6     :    14.0000 
 Damping factor alpha8     :    16.0000 
 ad hoc parameters k1-k3   :    16.0000     1.3333    -4.0000 

 Edisp/kcal,au: -0.009334497442  -0.000014875467 
 E6   /kcal   :  -0.001455977 
 E8   /kcal   :  -0.007878521 
 % E8         :  84.402196624 

-------------------------   ----------------
Dispersion correction           -0.000014875
-------------------------   ----------------


-------------------------   --------------------
FINAL SINGLE POINT ENERGY       -39.834586534600
-------------------------   --------------------

                                *** OPTIMIZATION RUN DONE ***

                            ***************************************
                            *     ORCA property calculations      *
                            ***************************************

                                    ---------------------
                                    Active property flags
                                    ---------------------
   (+) Dipole Moment


------------------------------------------------------------------------------
                       ORCA ELECTRIC PROPERTIES CALCULATION
------------------------------------------------------------------------------

Dipole Moment Calculation                       ... on
Quadrupole Moment Calculation                   ... off
Polarizability Calculation                      ... off
GBWName                                         ... /beegfs/scratch/ispackman/PFAS_EPR_calcs/benchmark/JChemEd_CF3_radical/CH3_radical_114.0_degrees_IN-PROGRESS/CH3_radical_114.0_degrees.gbw
Electron density                                ... /beegfs/scratch/ispackman/PFAS_EPR_calcs/benchmark/JChemEd_CF3_radical/CH3_radical_114.0_degrees_IN-PROGRESS/CH3_radical_114.0_degrees.scfp
The origin for moment calculation is the CENTER OF MASS  = (-0.000009, -0.000000 -0.100995)

-------------
DIPOLE MOMENT
-------------
                                X             Y             Z
Electronic contribution:      0.00015       0.00000       0.40713
Nuclear contribution   :      0.00002       0.00000      -0.60845
                        -----------------------------------------
Total Dipole Moment    :      0.00017       0.00000      -0.20132
                        -----------------------------------------
Magnitude (a.u.)       :      0.20132
Magnitude (Debye)      :      0.51171



--------------------
Rotational spectrum 
--------------------
 
Rotational constants in cm-1:     9.127180     9.126938     5.046928 
Rotational constants in MHz : 273625.987086 273618.731724 151303.087272 

 Dipole components along the rotational axes: 
x,y,z [a.u.] :     0.000170    -0.000000    -0.201318 
x,y,z [Debye]:     0.000432    -0.000000    -0.511709 

 


           ************************************************************
           *        Program running with 18 parallel MPI-processes    *
           *              working on a common directory               *
           ************************************************************

-------------------------------------------------------------------------------
                               ORCA SCF HESSIAN
-------------------------------------------------------------------------------

                   --------- SHARK INITIALIZATION DONE ---------

Hessian of the Kohn-Sham DFT energy:
Kohn-Sham wavefunction type                      ... UKS
Hartree-Fock exchange scaling                    ...    0.196
Number of operators                              ...    2
Number of atoms                                  ...    4
Basis set dimensions                             ...   64
Integral neglect threshold                       ... 2.5e-11
Integral primitive cutoff                        ... 2.5e-12

Setting up DFT Hessian calculations              ... 

HESS GRID
---------

General Integration Accuracy     IntAcc      ... 4.629
Radial Grid Type                 RadialGrid  ... OptM3 with GC (2021)
Angular Grid (max. ang.)         AngularGrid ... 5 (Lebedev-434)
Angular grid pruning method      GridPruning ... 4 (adaptive)
Weight generation scheme         WeightScheme... Becke
Basis function cutoff            BFCut       ... 1.0000e-11
Integration weight cutoff        WCut        ... 1.0000e-14
Angular grids for H and He will be reduced by one unit
Partially contracted basis set               ... off
Rotationally invariant grid construction     ... off

Total number of grid points                  ...    27254
Total number of batches                      ...      427
Average number of points per batch           ...       63
Average number of grid points per atom       ...     6814

Building densities                               ... done   (      0.0 sec)
Calculating rho(r) on the grid                   ... done   (      0.1 sec)
Building xc-kernel on the grid                   ... done   (      0.1 sec)
                                                     done   (      0.4 sec)

Nuclear repulsion Hessian  (SHARK)               ... done   (      0.0 sec)

----------------------------------------------
Forming right-hand sides of CP-SCF equations     ...
----------------------------------------------
One electron integral derivatives  (SHARK)       ... done   (      0.0 sec)
Transforming the overlap derivative matrices     ... done   (      0.0 sec)
Making the Q(x) pseudodensities                  ... done   (      0.0 sec)
Adding the E*S(x)*S(y) terms to the Hessian      ... done   (      0.0 sec)
Calculating energy weighted overlap derivatives  ... done   (      0.0 sec)
Two electron integral derivatives (SHARK-RI)     ... done   (      0.5 sec)
Exchange-correlation integral derivatives        ... done   (      0.4 sec)
tr(F(y)Q(x)) contribution to the Hessian         ... done   (      0.0 sec)
Response fock operator R(S(x)) (SHARK-RIJCOSX)   ... done   (      0.6 sec)
XC Response fock operator R(S(x))                ... done   (      0.1 sec)
tr(F(y)S(x)) contribution to the Hessian         ... done   (      0.0 sec)
Transforming and finalizing RHSs                 ... done   (      0.0 sec)

----------------------------------------------
Solving the CP-SCF equations (RIJCOSX)           ...
----------------------------------------------
     CP-SCF ITERATION   0:   8.4836e-02 (   0.3 sec   0/ 12 done)
     CP-SCF ITERATION   1:   2.5983e-02 (   0.3 sec   0/ 12 done)
     CP-SCF ITERATION   2:   6.2145e-03 (   0.3 sec   0/ 12 done)
     CP-SCF ITERATION   3:   1.7751e-03 (   0.3 sec   0/ 12 done)
     CP-SCF ITERATION   4:   3.8626e-04 (   0.3 sec   1/ 12 done)
     CP-SCF ITERATION   5:   8.0167e-05 (   0.3 sec  12/ 12 done)
                    *** THE CP-SCF HAS CONVERGED ***

                                                 ... done   (      1.9 sec)
Forming perturbed density Hessian contributions  ... done   (      0.0 sec)
2nd integral derivative contribs (SHARK-RI)      ... done   (      0.7 sec)
Exchange-correlation Hessian                     ... done   (      0.3 sec)
Dispersion correction in the Hessian             ... done   (      0.1 sec)
Dipole derivatives                               ... (center of mass: -0.000009, -0.000000 -0.100995)done   (      0.1 sec)

Total SCF Hessian time: 0 days 0 hours 0 min 5 sec 

Writing the Hessian file to the disk             ... done


Maximum memory used throughout the entire SCFHESS-calculation: 109.8 MB

-----------------------
VIBRATIONAL FREQUENCIES
-----------------------

Scaling factor for frequencies =  1.000000000  (already applied!)

   0:         0.00 cm**-1
   1:         0.00 cm**-1
   2:         0.00 cm**-1
   3:         0.00 cm**-1
   4:         0.00 cm**-1
   5:         0.00 cm**-1
   6:       989.91 cm**-1
   7:      1419.07 cm**-1
   8:      1425.55 cm**-1
   9:      3098.58 cm**-1
  10:      3241.38 cm**-1
  11:      3241.90 cm**-1


------------
NORMAL MODES
------------

These modes are the Cartesian displacements weighted by the diagonal matrix
M(i,i)=1/sqrt(m[i]) where m[i] is the mass of the displaced atom
Thus, these vectors are normalized but *not* orthogonal

                  0          1          2          3          4          5    
      0       0.000000   0.000000   0.000000   0.000000   0.000000   0.000000
      1       0.000000   0.000000   0.000000   0.000000   0.000000   0.000000
      2       0.000000   0.000000   0.000000   0.000000   0.000000   0.000000
      3       0.000000   0.000000   0.000000   0.000000   0.000000   0.000000
      4       0.000000   0.000000   0.000000   0.000000   0.000000   0.000000
      5       0.000000   0.000000   0.000000   0.000000   0.000000   0.000000
      6       0.000000   0.000000   0.000000   0.000000   0.000000   0.000000
      7       0.000000   0.000000   0.000000   0.000000   0.000000   0.000000
      8       0.000000   0.000000   0.000000   0.000000   0.000000   0.000000
      9       0.000000   0.000000   0.000000   0.000000   0.000000   0.000000
     10       0.000000   0.000000   0.000000   0.000000   0.000000   0.000000
     11       0.000000   0.000000   0.000000   0.000000   0.000000   0.000000
                  6          7          8          9         10         11    
      0      -0.000654   0.085625  -0.000001  -0.000123   0.096633   0.000006
      1      -0.000000  -0.000001  -0.085697   0.000000   0.000006  -0.096568
      2      -0.139410  -0.000915   0.000000   0.029207   0.000009   0.000000
      3       0.141721   0.107673  -0.000001   0.566639  -0.786967  -0.000049
      4       0.000000   0.000005   0.787212   0.000000   0.000001  -0.020920
      5       0.552373   0.178768  -0.000001  -0.116259   0.197615   0.000012
      6      -0.066962  -0.563972   0.386982  -0.282584  -0.182218  -0.350299
      7       0.125876  -0.386582   0.116966   0.488869   0.350907   0.585818
      8       0.554394  -0.083935  -0.151802  -0.115882  -0.098851  -0.171064
      9      -0.066963  -0.563977  -0.386975  -0.282584  -0.182262   0.350276
     10      -0.125876   0.386584   0.116961  -0.488870  -0.350980   0.585774
     11       0.554394  -0.083933   0.151802  -0.115882  -0.098872   0.171051


-----------
IR SPECTRUM
-----------

 Mode   freq       eps      Int      T**2         TX        TY        TZ
       cm**-1   L/(mol*cm) km/mol    a.u.
----------------------------------------------------------------------------
  6:    989.91   0.006905   34.89  0.002177  (-0.000094  0.000000  0.046654)
  7:   1419.07   0.000585    2.96  0.000129  (-0.011339  0.000000  0.000281)
  8:   1425.55   0.000579    2.93  0.000127  ( 0.000000  0.011259 -0.000000)
  9:   3098.58   0.000011    0.05  0.000001  (-0.000063  0.000000  0.001032)
 10:   3241.38   0.002618   13.23  0.000252  ( 0.015877  0.000001  0.000004)
 11:   3241.90   0.002624   13.26  0.000253  ( 0.000001 -0.015894  0.000000)

* The epsilon (eps) is given for a Dirac delta lineshape.
** The dipole moment derivative (T) already includes vibrational overlap.

The first frequency considered to be a vibration is 6
The total number of vibrations considered is 6


--------------------------
THERMOCHEMISTRY AT 298.15K
--------------------------

Temperature         ... 298.15 K
Pressure            ... 1.00 atm
Total Mass          ... 15.03 AMU

Throughout the following assumptions are being made:
  (1) The electronic state is orbitally nondegenerate
      but the spin degeneracy is treated
  (2) There are no thermally accessible electronically excited states
  (3) Hindered rotations indicated by low frequency modes are not
      treated as such but are treated as vibrations and this may
      cause some error
  (4) All equations used are the standard statistical mechanics
      equations for an ideal gas
  (5) All vibrations are strictly harmonic

freq.     989.91  E(vib)   ...       0.02 
freq.    1419.07  E(vib)   ...       0.00 
freq.    1425.55  E(vib)   ...       0.00 
freq.    3098.58  E(vib)   ...       0.00 
freq.    3241.38  E(vib)   ...       0.00 
freq.    3241.90  E(vib)   ...       0.00 

------------
INNER ENERGY
------------

The inner energy is: U= E(el) + E(ZPE) + E(vib) + E(rot) + E(trans)
    E(el)   - is the total energy from the electronic structure calculation
              = E(kin-el) + E(nuc-el) + E(el-el) + E(nuc-nuc)
    E(ZPE)  - the the zero temperature vibrational energy from the frequency calculation
    E(vib)  - the the finite temperature correction to E(ZPE) due to population
              of excited vibrational states
    E(rot)  - is the rotational thermal energy
    E(trans)- is the translational thermal energy

Summary of contributions to the inner energy U:
Electronic energy                ...    -39.83458653 Eh
Zero point energy                ...      0.03056480 Eh      19.18 kcal/mol
Thermal vibrational correction   ...      0.00005188 Eh       0.03 kcal/mol
Thermal rotational correction    ...      0.00141627 Eh       0.89 kcal/mol
Thermal translational correction ...      0.00141627 Eh       0.89 kcal/mol
-----------------------------------------------------------------------
Total thermal energy                    -39.80113731 Eh


Summary of corrections to the electronic energy:
(perhaps to be used in another calculation)
Total thermal correction                  0.00288443 Eh       1.81 kcal/mol
Non-thermal (ZPE) correction              0.03056480 Eh      19.18 kcal/mol
-----------------------------------------------------------------------
Total correction                          0.03344922 Eh      20.99 kcal/mol


--------
ENTHALPY
--------

The enthalpy is H = U + kB*T
                kB is Boltzmann's constant
Total free energy                 ...    -39.80113731 Eh 
Thermal Enthalpy correction       ...      0.00094421 Eh       0.59 kcal/mol
-----------------------------------------------------------------------
Total Enthalpy                    ...    -39.80019310 Eh


Note: Rotational entropy computed according to Herzberg 
Infrared and Raman Spectra, Chapter V,1, Van Nostrand Reinhold, 1945 
Point Group:  C3v, Symmetry Number:   3  
Rotational constants in cm-1:     9.127180     9.126938     5.046928 

Vibrational entropy computed according to the QRRHO of S. Grimme
Chem.Eur.J. 2012 18 9955


-------
ENTROPY
-------

The entropy contributions are T*S = T*(S(el)+S(vib)+S(rot)+S(trans))
     S(el)   - electronic entropy
     S(vib)  - vibrational entropy
     S(rot)  - rotational entropy
     S(trans)- translational entropy
The entropies will be listed as multiplied by the temperature to get
units of energy

Electronic entropy                ...      0.00065446 Eh      0.41 kcal/mol
Vibrational entropy               ...      0.00006187 Eh      0.04 kcal/mol
Rotational entropy                ...      0.00562150 Eh      3.53 kcal/mol
Translational entropy             ...      0.01618771 Eh     10.16 kcal/mol
-----------------------------------------------------------------------
Final entropy term                ...      0.02252553 Eh     14.13 kcal/mol

In case the symmetry of your molecule has not been determined correctly
or in case you have a reason to use a different symmetry number we print 
out the resulting rotational entropy values for sn=1,12 :
 --------------------------------------------------------
|  sn= 1 | S(rot)=       0.00665879 Eh      4.18 kcal/mol|
|  sn= 2 | S(rot)=       0.00600433 Eh      3.77 kcal/mol|
|  sn= 3 | S(rot)=       0.00562150 Eh      3.53 kcal/mol|
|  sn= 4 | S(rot)=       0.00534987 Eh      3.36 kcal/mol|
|  sn= 5 | S(rot)=       0.00513919 Eh      3.22 kcal/mol|
|  sn= 6 | S(rot)=       0.00496704 Eh      3.12 kcal/mol|
|  sn= 7 | S(rot)=       0.00482149 Eh      3.03 kcal/mol|
|  sn= 8 | S(rot)=       0.00469542 Eh      2.95 kcal/mol|
|  sn= 9 | S(rot)=       0.00458421 Eh      2.88 kcal/mol|
|  sn=10 | S(rot)=       0.00448473 Eh      2.81 kcal/mol|
|  sn=11 | S(rot)=       0.00439474 Eh      2.76 kcal/mol|
|  sn=12 | S(rot)=       0.00431258 Eh      2.71 kcal/mol|
 --------------------------------------------------------


-------------------
GIBBS FREE ENERGY
-------------------

The Gibbs free energy is G = H - T*S

Total enthalpy                    ...    -39.80019310 Eh 
Total entropy correction          ...     -0.02252553 Eh    -14.13 kcal/mol
-----------------------------------------------------------------------
Final Gibbs free energy         ...    -39.82271863 Eh

For completeness - the Gibbs free energy minus the electronic energy
G-E(el)                           ...      0.01186790 Eh      7.45 kcal/mol


Timings for individual modules:

Sum of individual times         ...       46.173 sec (=   0.770 min)
GTO integral calculation        ...        8.318 sec (=   0.139 min)  18.0 %
SCF iterations                  ...       23.657 sec (=   0.394 min)  51.2 %
SCF Gradient evaluation         ...        5.989 sec (=   0.100 min)  13.0 %
Geometry relaxation             ...        0.126 sec (=   0.002 min)   0.3 %
Analytical frequency calculation...        8.082 sec (=   0.135 min)  17.5 %
                             ****ORCA TERMINATED NORMALLY****
TOTAL RUN TIME: 0 days 0 hours 0 minutes 53 seconds 203 msec

slurmID:    32260119
totalRuntime[s]:    53.241130509
