
                                 *****************
                                 * O   R   C   A *
                                 *****************

                                            #,                                       
                                            ###                                      
                                            ####                                     
                                            #####                                    
                                            ######                                   
                                           ########,                                 
                                     ,,################,,,,,                         
                               ,,#################################,,                 
                          ,,##########################################,,             
                       ,#########################################, ''#####,          
                    ,#############################################,,   '####,        
                  ,##################################################,,,,####,       
                ,###########''''           ''''###############################       
              ,#####''   ,,,,##########,,,,          '''####'''          '####       
            ,##' ,,,,###########################,,,                        '##       
           ' ,,###''''                  '''############,,,                           
         ,,##''                                '''############,,,,        ,,,,,,###''
      ,#''                                            '''#######################'''  
     '                                                          ''''####''''         
             ,#######,   #######,   ,#######,      ##                                
            ,#'     '#,  ##    ##  ,#'     '#,    #''#        ######   ,####,        
            ##       ##  ##   ,#'  ##            #'  '#       #        #'  '#        
            ##       ##  #######   ##           ,######,      #####,   #    #        
            '#,     ,#'  ##    ##  '#,     ,#' ,#      #,         ##   #,  ,#        
             '#######'   ##     ##  '#######'  #'      '#     #####' # '####'        



                  #######################################################
                  #                        -***-                        #
                  #          Department of theory and spectroscopy      #
                  #    Directorship and core code : Frank Neese         #
                  #        Max Planck Institute fuer Kohlenforschung    #
                  #                Kaiser Wilhelm Platz 1               #
                  #                 D-45470 Muelheim/Ruhr               #
                  #                      Germany                        #
                  #                                                     #
                  #                  All rights reserved                #
                  #                        -***-                        #
                  #######################################################


                         Program Version 5.0.4 -  RELEASE  -


 With contributions from (in alphabetic order):
   Daniel Aravena         : Magnetic Suceptibility
   Michael Atanasov       : Ab Initio Ligand Field Theory (pilot matlab implementation)
   Alexander A. Auer      : GIAO ZORA, VPT2 properties, NMR spectrum
   Ute Becker             : Parallelization
   Giovanni Bistoni       : ED, misc. LED, open-shell LED, HFLD
   Martin Brehm           : Molecular dynamics
   Dmytro Bykov           : SCF Hessian
   Vijay G. Chilkuri      : MRCI spin determinant printing, contributions to CSF-ICE
   Dipayan Datta          : RHF DLPNO-CCSD density
   Achintya Kumar Dutta   : EOM-CC, STEOM-CC
   Dmitry Ganyushin       : Spin-Orbit,Spin-Spin,Magnetic field MRCI
   Miquel Garcia          : C-PCM and meta-GGA Hessian, CC/C-PCM, Gaussian charge scheme
   Yang Guo               : DLPNO-NEVPT2, F12-NEVPT2, CIM, IAO-localization
   Andreas Hansen         : Spin unrestricted coupled pair/coupled cluster methods
   Benjamin Helmich-Paris : MC-RPA, TRAH-SCF, COSX integrals
   Lee Huntington         : MR-EOM, pCC
   Robert Izsak           : Overlap fitted RIJCOSX, COSX-SCS-MP3, EOM
   Marcus Kettner         : VPT2
   Christian Kollmar      : KDIIS, OOCD, Brueckner-CCSD(T), CCSD density, CASPT2, CASPT2-K
   Simone Kossmann        : Meta GGA functionals, TD-DFT gradient, OOMP2, MP2 Hessian
   Martin Krupicka        : Initial AUTO-CI
   Lucas Lang             : DCDCAS
   Marvin Lechner         : AUTO-CI (C++ implementation), FIC-MRCC
   Dagmar Lenk            : GEPOL surface, SMD
   Dimitrios Liakos       : Extrapolation schemes; Compound Job, initial MDCI parallelization
   Dimitrios Manganas     : Further ROCIS development; embedding schemes
   Dimitrios Pantazis     : SARC Basis sets
   Anastasios Papadopoulos: AUTO-CI, single reference methods and gradients
   Taras Petrenko         : DFT Hessian,TD-DFT gradient, ASA, ECA, R-Raman, ABS, FL, XAS/XES, NRVS
   Peter Pinski           : DLPNO-MP2, DLPNO-MP2 Gradient
   Christoph Reimann      : Effective Core Potentials
   Marius Retegan         : Local ZFS, SOC
   Christoph Riplinger    : Optimizer, TS searches, QM/MM, DLPNO-CCSD(T), (RO)-DLPNO pert. Triples
   Tobias Risthaus        : Range-separated hybrids, TD-DFT gradient, RPA, STAB
   Michael Roemelt        : Original ROCIS implementation
   Masaaki Saitow         : Open-shell DLPNO-CCSD energy and density
   Barbara Sandhoefer     : DKH picture change effects
   Avijit Sen             : IP-ROCIS
   Kantharuban Sivalingam : CASSCF convergence, NEVPT2, FIC-MRCI
   Bernardo de Souza      : ESD, SOC TD-DFT
   Georgi Stoychev        : AutoAux, RI-MP2 NMR, DLPNO-MP2 response
   Willem Van den Heuvel  : Paramagnetic NMR
   Boris Wezisla          : Elementary symmetry handling
   Frank Wennmohs         : Technical directorship


 We gratefully acknowledge several colleagues who have allowed us to
 interface, adapt or use parts of their codes:
   Stefan Grimme, W. Hujo, H. Kruse, P. Pracht,  : VdW corrections, initial TS optimization,
                  C. Bannwarth, S. Ehlert          DFT functionals, gCP, sTDA/sTD-DF
   Ed Valeev, F. Pavosevic, A. Kumar             : LibInt (2-el integral package), F12 methods
   Garnet Chan, S. Sharma, J. Yang, R. Olivares  : DMRG
   Ulf Ekstrom                                   : XCFun DFT Library
   Mihaly Kallay                                 : mrcc  (arbitrary order and MRCC methods)
   Jiri Pittner, Ondrej Demel                    : Mk-CCSD
   Frank Weinhold                                : gennbo (NPA and NBO analysis)
   Christopher J. Cramer and Donald G. Truhlar   : smd solvation model
   Lars Goerigk                                  : TD-DFT with DH, B97 family of functionals
   V. Asgeirsson, H. Jonsson                     : NEB implementation
   FAccTs GmbH                                   : IRC, NEB, NEB-TS, DLPNO-Multilevel, CI-OPT
                                                   MM, QMMM, 2- and 3-layer-ONIOM, Crystal-QMMM,
                                                   LR-CPCM, SF, NACMEs, symmetry and pop. for TD-DFT,
                                                   nearIR, NL-DFT gradient (VV10), updates on ESD,
                                                   ML-optimized integration grids
   S Lehtola, MJT Oliveira, MAL Marques          : LibXC Library
   Liviu Ungur et al                             : ANISO software


 Your calculation uses the libint2 library for the computation of 2-el integrals
 For citations please refer to: http://libint.valeyev.net

 Your ORCA version has been built with support for libXC version: 5.1.0
 For citations please refer to: https://tddft.org/programs/libxc/

 This ORCA versions uses:
   CBLAS   interface :  Fast vector & matrix operations
   LAPACKE interface :  Fast linear algebra routines
   SCALAPACK package :  Parallel linear algebra routines
   Shared memory     :  Shared parallel matrices
   BLAS/LAPACK       :  OpenBLAS 0.3.15  USE64BITINT DYNAMIC_ARCH NO_AFFINITY SkylakeX SINGLE_THREADED
        Core in use  :  SkylakeX
   Copyright (c) 2011-2014, The OpenBLAS Project


Your calculation utilizes the atom-pairwise dispersion correction
with the zero-damping scheme (D30)
Cite in your paper:
S.Grimme, J.Antony, S.Ehrlich and H.Krieg, J.Chem.Phys., 132, (2010), 154104 
   

XCFun DFT library Copyright 2009-2010 Ulf Ekstrom and contributors.
See http://admol.org/xcfun for more information.
This is free software; see the source code for copying conditions.
There is ABSOLUTELY NO WARRANTY; not even for MERCHANTABILITY or FITNESS FOR A PARTICULAR PURPOSE.
For details see the documentation.
Scientific users of this library should cite U. Ekstrom, L. Visscher, R. Bast, A. J. Thorvaldsen and K. Ruud;
J.Chem.Theor.Comp. 2010, DOI: 10.1021/ct100117s
XCFun Version 0.99 

================================================================================

----- Orbital basis set information -----
Your calculation utilizes the basis: def2-TZVPD
   F. Weigend and R. Ahlrichs, Phys. Chem. Chem. Phys. 7, 3297 (2005).
   D. Rappoport and F. Furche, J. Chem. Phys. 133 134105 (2010).

----- AuxJ basis set information -----
Your calculation utilizes the auxiliary basis: def2/J
   F. Weigend, Phys. Chem. Chem. Phys. 8, 1057 (2006).

================================================================================
                                        WARNINGS
                       Please study these warnings very carefully!
================================================================================


WARNING: Geometry Optimization
  ===> : Switching off AutoStart
         For restart on a previous wavefunction, please use MOREAD

INFO   : the flag for use of the SHARK integral package has been found!

================================================================================
                                       INPUT FILE
================================================================================
NAME = /beegfs/scratch/ispackman/PFAS_EPR_calcs/benchmark/JChemEd_CF3_radical/CH3_radical_118.5_degrees_IN-PROGRESS/CH3_radical_118.5_degrees.inp
|  1> ! UKS TightSCF wB97x-D3 def2-TZVPD xyzfile opt freq
|  2> 
|  3> # CH3 radical 118.5 degrees fixed
|  4> 
|  5> %maxcore 1000
|  6> %pal
|  7> nprocs 18
|  8> end
|  9> 
| 10> %geom Constraints
| 11>         { A * 0 * C }
| 12>     end
| 13> end
| 14> * xyz 0 2
| 15> C 0.00 0.00 0.00
| 16> H 1.0717456097 0.0000000000 -0.1332717075
| 17> H -0.5358728049 0.9281589244 -0.1332717075
| 18> H -0.5358728049 -0.9281589244 -0.1332717075
| 19> **                         ****END OF INPUT****
================================================================================

                       *****************************
                       * Geometry Optimization Run *
                       *****************************

Geometry optimization settings:
Update method            Update   .... BFGS
Choice of coordinates    CoordSys .... Z-matrix Internals
Initial Hessian          InHess   .... Almoef's Model

Convergence Tolerances:
Energy Change            TolE     ....  5.0000e-06 Eh
Max. Gradient            TolMAXG  ....  3.0000e-04 Eh/bohr
RMS Gradient             TolRMSG  ....  1.0000e-04 Eh/bohr
Max. Displacement        TolMAXD  ....  4.0000e-03 bohr
RMS Displacement         TolRMSD  ....  2.0000e-03 bohr
Strict Convergence                ....  False
------------------------------------------------------------------------------
                        ORCA OPTIMIZATION COORDINATE SETUP
------------------------------------------------------------------------------

The optimization will be done in new redundant internal coordinates
Making redundant internal coordinates   ...  (new redundants) done
Evaluating the initial hessian          ...  (Almloef) done
Evaluating the coordinates              ...  done
Calculating the B-matrix                .... done
Calculating the G-matrix                .... done
Diagonalizing the G-matrix              .... done
Imposing constraints:
 Iter   0:  RMS(Cart)=    0.0000000000 RMS(Int)=    0.0000000000
CONVERGED
Will constrain atom 0 coordinate 1 
Will constrain atom 0 coordinate 2 
Will constrain atom 1 coordinate 2 
The first mode is                       ....    1
The number of degrees of freedom        ....    6
Storing new coordinates                 .... done

    -----------------------------------------------------------------
                    Redundant Internal Coordinates


    -----------------------------------------------------------------
         Definition                    Initial Value    Approx d2E/dq
    -----------------------------------------------------------------
      1. B(H   1,C   0)                  1.0800         0.373575   
      2. B(H   2,C   0)                  1.0800         0.373575   
      3. B(H   3,C   0)                  1.0800         0.373575   
      4. A(H   2,C   0,H   3)          118.5000         0.294224 C 
      5. A(H   1,C   0,H   2)          118.5000         0.294224 C 
      6. A(H   1,C   0,H   3)          118.5000         0.294224 C 
      7. I(H   1,H   3,H   2,C   0)     21.0545         0.018061   
    -----------------------------------------------------------------

Number of atoms                         .... 4
Number of degrees of freedom            .... 7

         *************************************************************
         *                GEOMETRY OPTIMIZATION CYCLE   1            *
         *************************************************************
---------------------------------
CARTESIAN COORDINATES (ANGSTROEM)
---------------------------------
  C      0.000000    0.000000    0.000000
  H      1.071746    0.000000   -0.133272
  H     -0.535873    0.928159   -0.133272
  H     -0.535873   -0.928159   -0.133272

----------------------------
CARTESIAN COORDINATES (A.U.)
----------------------------
  NO LB      ZA    FRAG     MASS         X           Y           Z
   0 C     6.0000    0    12.011    0.000000    0.000000    0.000000
   1 H     1.0000    0     1.008    2.025306    0.000000   -0.251847
   2 H     1.0000    0     1.008   -1.012653    1.753966   -0.251847
   3 H     1.0000    0     1.008   -1.012653   -1.753966   -0.251847

--------------------------------
INTERNAL COORDINATES (ANGSTROEM)
--------------------------------
 C      0   0   0     0.000000000000     0.00000000     0.00000000
 H      1   0   0     1.079999999968     0.00000000     0.00000000
 H      1   2   0     1.079999999998   118.50000000     0.00000000
 H      1   2   3     1.079999999998   118.50000000   155.87087307

---------------------------
INTERNAL COORDINATES (A.U.)
---------------------------
 C      0   0   0     0.000000000000     0.00000000     0.00000000
 H      1   0   0     2.040904224575     0.00000000     0.00000000
 H      1   2   0     2.040904224630   118.50000000     0.00000000
 H      1   2   3     2.040904224630   118.50000000   155.87087307

---------------------
BASIS SET INFORMATION
---------------------
There are 2 groups of distinct atoms

 Group   1 Type C   : 12s6p3d1f contracted to 6s3p3d1f pattern {621111/411/111/1}
 Group   2 Type H   : 5s2p contracted to 3s2p pattern {311/11}

Atom   0C    basis set group =>   1
Atom   1H    basis set group =>   2
Atom   2H    basis set group =>   2
Atom   3H    basis set group =>   2
---------------------------------
AUXILIARY/J BASIS SET INFORMATION
---------------------------------
There are 2 groups of distinct atoms

 Group   1 Type C   : 12s5p4d2f1g contracted to 6s4p3d1f1g pattern {711111/2111/211/2/1}
 Group   2 Type H   : 5s2p1d contracted to 3s1p1d pattern {311/2/1}

Atom   0C    basis set group =>   1
Atom   1H    basis set group =>   2
Atom   2H    basis set group =>   2
Atom   3H    basis set group =>   2


           ************************************************************
           *        Program running with 18 parallel MPI-processes    *
           *              working on a common directory               *
           ************************************************************
------------------------------------------------------------------------------
                           ORCA GTO INTEGRAL CALCULATION
                           -- RI-GTO INTEGRALS CHOSEN --
------------------------------------------------------------------------------
------------------------------------------------------------------------------
                   ___                                                        
                  /   \      - P O W E R E D   B Y -                         
                 /     \                                                     
                 |  |  |   _    _      __       _____    __    __             
                 |  |  |  | |  | |    /  \     |  _  \  |  |  /  |          
                  \  \/   | |  | |   /    \    | | | |  |  | /  /          
                 / \  \   | |__| |  /  /\  \   | |_| |  |  |/  /          
                |  |  |   |  __  | /  /__\  \  |    /   |      \           
                |  |  |   | |  | | |   __   |  |    \   |  |\   \          
                \     /   | |  | | |  |  |  |  | |\  \  |  | \   \       
                 \___/    |_|  |_| |__|  |__|  |_| \__\ |__|  \__/        
                                                                              
                      - O R C A' S   B I G   F R I E N D -                    
                                      &                                       
                       - I N T E G R A L  F E E D E R -                       
                                                                              
 v1 FN, 2020, v2 2021                                                         
------------------------------------------------------------------------------


Reading SHARK input file /beegfs/scratch/ispackman/PFAS_EPR_calcs/benchmark/JChemEd_CF3_radical/CH3_radical_118.5_degrees_IN-PROGRESS/CH3_radical_118.5_degrees.SHARKINP.tmp ... ok
----------------------
SHARK INTEGRAL PACKAGE
----------------------

Number of atoms                             ...      4
Number of basis functions                   ...     64
Number of shells                            ...     28
Maximum angular momentum                    ...      3
Integral batch strategy                     ... SHARK/LIBINT Hybrid
RI-J (if used) integral strategy            ... SPLIT-RIJ (Revised 2003 algorithm where possible)
Printlevel                                  ...      1
Contraction scheme used                     ... SEGMENTED contraction
Coulomb Range Separation                    ... NOT USED
Exchange Range Separation                   ... Long Range
   Mu parameter                             ...  0.250000
   Scaling (regular/separated)              ...  0.195728  0.804272
Finite Nucleus Model                        ... NOT USED
Auxiliary Coulomb fitting basis             ... AVAILABLE
   # of basis functions in Aux-J            ...     82
   # of shells in Aux-J                     ...     30
   Maximum angular momentum in Aux-J        ...      4
Auxiliary J/K fitting basis                 ... NOT available
Auxiliary Correlation fitting basis         ... NOT available
Auxiliary 'external' fitting basis          ... NOT available
Integral threshold                          ...     2.500000e-11
Primitive cut-off                           ...     2.500000e-12
Primitive pair pre-selection threshold      ...     2.500000e-12

Calculating pre-screening integrals         ... done (  0.0 sec) Dimension = 28
Organizing shell pair data                  ... done (  0.0 sec)
Shell pair information
Total number of shell pairs                 ...       406
Shell pairs after pre-screening             ...       406
Total number of primitive shell pairs       ...       977
Primitive shell pairs kept                  ...       944
          la=0 lb=0:    120 shell pairs
          la=1 lb=0:    135 shell pairs
          la=1 lb=1:     45 shell pairs
          la=2 lb=0:     45 shell pairs
          la=2 lb=1:     27 shell pairs
          la=2 lb=2:      6 shell pairs
          la=3 lb=0:     15 shell pairs
          la=3 lb=1:      9 shell pairs
          la=3 lb=2:      3 shell pairs
          la=3 lb=3:      1 shell pairs

Calculating one electron integrals          ... done (  0.0 sec)
Calculating RI/J V-Matrix + Cholesky decomp.... done (  0.0 sec)
Calculating Nuclear repulsion               ... done (  0.0 sec) ENN=      9.674824771576 Eh

SHARK setup successfully completed in   0.3 seconds

Maximum memory used throughout the entire GTOINT-calculation: 14.0 MB


           ************************************************************
           *        Program running with 18 parallel MPI-processes    *
           *              working on a common directory               *
           ************************************************************
-------------------------------------------------------------------------------
                                 ORCA SCF
-------------------------------------------------------------------------------

------------
SCF SETTINGS
------------
Hamiltonian:
 Density Functional     Method          .... DFT(GTOs)
 Exchange Functional    Exchange        .... WB97X-D3
 Correlation Functional Correlation     .... WB97X-D3
 Gradients option       PostSCFGGA      .... off
 Hybrid DFT is turned on
   Fraction HF Exchange ScalHFX         ....  0.195728
   Scaling of DF-GGA-X  ScalDFX         ....  0.000000
   Scaling of DF-GGA-C  ScalDFC         ....  1.000000
   Scaling of DF-LDA-C  ScalLDAC        ....  1.000000
   Perturbative correction              ....  0.000000
   Density functional embedding theory  .... OFF
 Long-range corrected/Screened/Range-Separated Hybrid DFT is turned on
   Amount of maximum screened exact exchange              ....  0.804272
   Range separation parameter mu (erf(mu*r12)/r12)        ....  0.250000
 RI-approximation to the Coulomb term is turned on
   Number of AuxJ basis functions       .... 82
   RIJ-COSX (HFX calculated with COS-X)).... on


General Settings:
 Integral files         IntName         .... /beegfs/scratch/ispackman/PFAS_EPR_calcs/benchmark/JChemEd_CF3_radical/CH3_radical_118.5_degrees_IN-PROGRESS/CH3_radical_118.5_degrees
 Hartree-Fock type      HFTyp           .... UHF
 Total Charge           Charge          ....    0
 Multiplicity           Mult            ....    2
 Number of Electrons    NEL             ....    9
 Basis Dimension        Dim             ....   64
 Nuclear Repulsion      ENuc            ....      9.6748247716 Eh

Convergence Acceleration:
 DIIS                   CNVDIIS         .... on
   Start iteration      DIISMaxIt       ....    12
   Startup error        DIISStart       ....  0.200000
   # of expansion vecs  DIISMaxEq       ....     5
   Bias factor          DIISBfac        ....   1.050
   Max. coefficient     DIISMaxC        ....  10.000
 Trust-Rad. Augm. Hess. CNVTRAH         .... auto
   Auto Start mean grad. ratio tolernc. ....  1.125000
   Auto Start start iteration           ....    20
   Auto Start num. interpolation iter.  ....    10
   Max. Number of Micro iterations      ....    16
   Max. Number of Macro iterations      .... Maxiter - #DIIS iter
   Number of Davidson start vectors     ....     2
   Converg. threshold I  (grad. norm)   ....   1.000e-05
   Converg. threshold II (energy diff.) ....   1.000e-08
   Grad. Scal. Fac. for Micro threshold ....   0.100
   Minimum threshold for Micro iter.    ....   0.010
   NR start threshold (gradient norm)   ....   0.001
   Initial trust radius                 ....   0.400
   Minimum AH scaling param. (alpha)    ....   1.000
   Maximum AH scaling param. (alpha)    .... 1000.000
   Orbital update algorithm             .... Taylor
   White noise on init. David. guess    .... on
   Maximum white noise                  ....   0.010
   Quad. conv. algorithm                .... NR
 SOSCF                  CNVSOSCF        .... off
 Level Shifting         CNVShift        .... on
   Level shift para.    LevelShift      ....    0.2500
   Turn off err/grad.   ShiftErr        ....    0.0010
 Zerner damping         CNVZerner       .... off
 Static damping         CNVDamp         .... on
   Fraction old density DampFac         ....    0.7000
   Max. Damping (<1)    DampMax         ....    0.9800
   Min. Damping (>=0)   DampMin         ....    0.0000
   Turn off err/grad.   DampErr         ....    0.1000
 Fernandez-Rico         CNVRico         .... off

SCF Procedure:
 Maximum # iterations   MaxIter         ....   125
 SCF integral mode      SCFMode         .... Direct
   Integral package                     .... SHARK and LIBINT hybrid scheme
 Reset frequency        DirectResetFreq ....    20
 Integral Threshold     Thresh          ....  2.500e-11 Eh
 Primitive CutOff       TCut            ....  2.500e-12 Eh

Convergence Tolerance:
 Convergence Check Mode ConvCheckMode   .... Total+1el-Energy
 Convergence forced     ConvForced      .... 0
 Energy Change          TolE            ....  1.000e-08 Eh
 1-El. energy change                    ....  1.000e-05 Eh
 DIIS Error             TolErr          ....  5.000e-07


Diagonalization of the overlap matrix:
Smallest eigenvalue                        ... 6.550e-05
Time for diagonalization                   ...    0.002 sec
Threshold for overlap eigenvalues          ... 1.000e-08
Number of eigenvalues below threshold      ... 0
Time for construction of square roots      ...    0.015 sec
Total time needed                          ...    0.018 sec

Time for model grid setup =    0.051 sec

------------------------------
INITIAL GUESS: MODEL POTENTIAL
------------------------------
Loading Hartree-Fock densities                     ... done
Calculating cut-offs                               ... done
Initializing the effective Hamiltonian             ... done
Setting up the integral package (SHARK)            ... done
Starting the Coulomb interaction                   ... done (   0.1 sec)
Reading the grid                                   ... done
Mapping shells                                     ... done
Starting the XC term evaluation                    ... done (   0.0 sec)
  promolecular density results
     # of electrons  =      8.998392209
     EX              =     -5.932460474
     EC              =     -0.258906153
     EX+EC           =     -6.191366627
Transforming the Hamiltonian                       ... done (   0.0 sec)
Diagonalizing the Hamiltonian                      ... done (   0.0 sec)
Back transforming the eigenvectors                 ... done (   0.0 sec)
Now organizing SCF variables                       ... done
                      ------------------
                      INITIAL GUESS DONE (   0.1 sec)
                      ------------------
-------------------
DFT GRID GENERATION
-------------------

General Integration Accuracy     IntAcc      ... 4.388
Radial Grid Type                 RadialGrid  ... OptM3 with GC (2021)
Angular Grid (max. ang.)         AngularGrid ... 4 (Lebedev-302)
Angular grid pruning method      GridPruning ... 4 (adaptive)
Weight generation scheme         WeightScheme... Becke
Basis function cutoff            BFCut       ... 1.0000e-11
Integration weight cutoff        WCut        ... 1.0000e-14
Angular grids for H and He will be reduced by one unit
Partially contracted basis set               ... off
Rotationally invariant grid construction     ... off

Total number of grid points                  ...    17041
Total number of batches                      ...      268
Average number of points per batch           ...       63
Average number of grid points per atom       ...     4260
Time for grid setup =    0.095 sec

--------------------
COSX GRID GENERATION
--------------------

GRIDX 1
-------
General Integration Accuracy     IntAcc      ... 3.816
Radial Grid Type                 RadialGrid  ... OptM3 with GC (2021)
Angular Grid (max. ang.)         AngularGrid ... 1 (Lebedev-50)
Angular grid pruning method      GridPruning ... 4 (adaptive)
Weight generation scheme         WeightScheme... Becke
Basis function cutoff            BFCut       ... 1.0000e-11
Integration weight cutoff        WCut        ... 1.0000e-14
Angular grids for H and He will be reduced by one unit
Partially contracted basis set               ... on
Rotationally invariant grid construction     ... off

Total number of grid points                  ...     2148
Total number of batches                      ...       35
Average number of points per batch           ...       61
Average number of grid points per atom       ...      537
UseSFitting                                  ... on

GRIDX 2
-------
General Integration Accuracy     IntAcc      ... 4.020
Radial Grid Type                 RadialGrid  ... OptM3 with GC (2021)
Angular Grid (max. ang.)         AngularGrid ... 2 (Lebedev-110)
Angular grid pruning method      GridPruning ... 4 (adaptive)
Weight generation scheme         WeightScheme... Becke
Basis function cutoff            BFCut       ... 1.0000e-11
Integration weight cutoff        WCut        ... 1.0000e-14
Angular grids for H and He will be reduced by one unit
Partially contracted basis set               ... on
Rotationally invariant grid construction     ... off

Total number of grid points                  ...     5054
Total number of batches                      ...       81
Average number of points per batch           ...       62
Average number of grid points per atom       ...     1264
UseSFitting                                  ... on

GRIDX 3
-------
General Integration Accuracy     IntAcc      ... 4.338
Radial Grid Type                 RadialGrid  ... OptM3 with GC (2021)
Angular Grid (max. ang.)         AngularGrid ... 3 (Lebedev-194)
Angular grid pruning method      GridPruning ... 4 (adaptive)
Weight generation scheme         WeightScheme... Becke
Basis function cutoff            BFCut       ... 1.0000e-11
Integration weight cutoff        WCut        ... 1.0000e-14
Angular grids for H and He will be reduced by one unit
Partially contracted basis set               ... on
Rotationally invariant grid construction     ... off

Total number of grid points                  ...    11726
Total number of batches                      ...      186
Average number of points per batch           ...       63
Average number of grid points per atom       ...     2932
UseSFitting                                  ... on

Time for X-Grid setup             =    0.261 sec

--------------
SCF ITERATIONS
--------------
ITER       Energy         Delta-E        Max-DP      RMS-DP      [F,P]     Damp
               ***  Starting incremental Fock matrix formation  ***
  0    -39.8019855734   0.000000000000 0.01605807  0.00058674  0.0796330 0.7000
  1    -39.8159863016  -0.014000728177 0.01063610  0.00049107  0.0506982 0.7000
                               ***Turning on DIIS***
  2    -39.8237813355  -0.007795033899 0.02809715  0.00115545  0.0288989 0.0000
  3    -39.8369338726  -0.013152537142 0.00905855  0.00037726  0.0200993 0.0000
  4    -39.8385892594  -0.001655386841 0.00244393  0.00009772  0.0036857 0.0000
  5    -39.8386570671  -0.000067807614 0.00167398  0.00006097  0.0015914 0.0000
  6    -39.8386758553  -0.000018788234 0.00139576  0.00004558  0.0006782 0.0000
               *** Restarting incremental Fock matrix formation ***
                                   *** Resetting DIIS ***
  7    -39.8386725459   0.000003309426 0.00034373  0.00001088  0.0000929 0.0000
  8    -39.8386726644  -0.000000118522 0.00013196  0.00000454  0.0000551 0.0000
  9    -39.8386726932  -0.000000028834 0.00002056  0.00000118  0.0000236 0.0000
 10    -39.8386726969  -0.000000003686 0.00000883  0.00000033  0.0000052 0.0000
                 **** Energy Check signals convergence ****

               *****************************************************
               *                     SUCCESS                       *
               *           SCF CONVERGED AFTER  11 CYCLES          *
               *****************************************************

Old exchange energy                            =     -2.172840618 Eh
New exchange energy                            =     -2.172844585 Eh
Exchange energy change after final integration =     -0.000003967 Eh
Total energy after final integration           =    -39.838676665 Eh
Final COS-X integration done in                =     0.111 sec

----------------
TOTAL SCF ENERGY
----------------

Total Energy       :          -39.83867666 Eh           -1084.06550 eV

Components:
Nuclear Repulsion  :            9.67482477 Eh             263.26537 eV
Electronic Energy  :          -49.51350144 Eh           -1347.33087 eV
One Electron Energy:          -71.66185987 Eh           -1950.01834 eV
Two Electron Energy:           22.14835844 Eh             602.68747 eV
Max COSX asymmetry :            0.00000014 Eh               0.00000 eV

Virial components:
Potential Energy   :          -79.46628189 Eh           -2162.38746 eV
Kinetic Energy     :           39.62760523 Eh            1078.32196 eV
Virial Ratio       :            2.00532637


DFT components:
N(Alpha)           :        5.000001574419 electrons
N(Beta)            :        4.000000327597 electrons
N(Total)           :        9.000001902016 electrons
E(XC)              :       -4.311881274279 Eh       
DFET-embed. en.    :        0.000000000000 Eh       

---------------
SCF CONVERGENCE
---------------

  Last Energy change         ...   -4.3926e-10  Tolerance :   1.0000e-08
  Last MAX-Density change    ...    0.0000e+00  Tolerance :   1.0000e-07
  Last RMS-Density change    ...    0.0000e+00  Tolerance :   5.0000e-09
  Last DIIS Error            ...    8.1282e-07  Tolerance :   5.0000e-07

             **** THE GBW FILE WAS UPDATED (/beegfs/scratch/ispackman/PFAS_EPR_calcs/benchmark/JChemEd_CF3_radical/CH3_radical_118.5_degrees_IN-PROGRESS/CH3_radical_118.5_degrees.gbw) ****
             **** DENSITY /beegfs/scratch/ispackman/PFAS_EPR_calcs/benchmark/JChemEd_CF3_radical/CH3_radical_118.5_degrees_IN-PROGRESS/CH3_radical_118.5_degrees.scfp WAS UPDATED ****
             **** ENERGY FILE WAS UPDATED (/beegfs/scratch/ispackman/PFAS_EPR_calcs/benchmark/JChemEd_CF3_radical/CH3_radical_118.5_degrees_IN-PROGRESS/CH3_radical_118.5_degrees.en.tmp) ****
----------------------
UHF SPIN CONTAMINATION
----------------------

Warning: in a DFT calculation there is little theoretical justification to 
         calculate <S**2> as in Hartree-Fock theory. We will do it anyways
         but you should keep in mind that the values have only limited relevance

Expectation value of <S**2>     :     0.753690
Ideal value S*(S+1) for S=0.5   :     0.750000
Deviation                       :     0.003690

             **** THE GBW FILE WAS UPDATED (/beegfs/scratch/ispackman/PFAS_EPR_calcs/benchmark/JChemEd_CF3_radical/CH3_radical_118.5_degrees_IN-PROGRESS/CH3_radical_118.5_degrees.gbw) ****
             **** DENSITY /beegfs/scratch/ispackman/PFAS_EPR_calcs/benchmark/JChemEd_CF3_radical/CH3_radical_118.5_degrees_IN-PROGRESS/CH3_radical_118.5_degrees.scfp WAS UPDATED ****
----------------
ORBITAL ENERGIES
----------------
                 SPIN UP ORBITALS
  NO   OCC          E(Eh)            E(eV) 
   0   1.0000     -10.286222      -279.9023 
   1   1.0000      -0.803297       -21.8588 
   2   1.0000      -0.519557       -14.1379 
   3   1.0000      -0.519556       -14.1378 
   4   1.0000      -0.331332        -9.0160 
   5   0.0000       0.076378         2.0784 
   6   0.0000       0.161251         4.3879 
   7   0.0000       0.161253         4.3879 
   8   0.0000       0.198148         5.3919 
   9   0.0000       0.203772         5.5449 
  10   0.0000       0.203775         5.5450 
  11   0.0000       0.234916         6.3924 
  12   0.0000       0.256949         6.9919 
  13   0.0000       0.256952         6.9920 
  14   0.0000       0.306017         8.3271 
  15   0.0000       0.368154        10.0180 
  16   0.0000       0.368698        10.0328 
  17   0.0000       0.368700        10.0329 
  18   0.0000       0.369391        10.0516 
  19   0.0000       0.392480        10.6799 
  20   0.0000       0.392484        10.6800 
  21   0.0000       0.470802        12.8112 
  22   0.0000       0.470810        12.8114 
  23   0.0000       0.497792        13.5456 
  24   0.0000       0.522340        14.2136 
  25   0.0000       0.524958        14.2848 
  26   0.0000       0.524960        14.2849 
  27   0.0000       0.776732        21.1359 
  28   0.0000       0.802032        21.8244 
  29   0.0000       0.802043        21.8247 
  30   0.0000       0.886149        24.1133 
  31   0.0000       0.886168        24.1139 
  32   0.0000       1.048584        28.5334 
  33   0.0000       1.048587        28.5335 
  34   0.0000       1.066953        29.0333 
  35   0.0000       1.556455        42.3533 
  36   0.0000       1.668818        45.4109 
  37   0.0000       1.723005        46.8853 
  38   0.0000       1.854902        50.4744 
  39   0.0000       1.854978        50.4765 
  40   0.0000       1.965151        53.4745 
  41   0.0000       1.965173        53.4751 
  42   0.0000       1.991250        54.1847 
  43   0.0000       2.286702        62.2243 
  44   0.0000       2.336748        63.5861 
  45   0.0000       2.336759        63.5864 
  46   0.0000       2.514152        68.4136 
  47   0.0000       2.514202        68.4149 
  48   0.0000       2.708212        73.6942 
  49   0.0000       2.708247        73.6951 
  50   0.0000       2.766260        75.2738 
  51   0.0000       3.161719        86.0348 
  52   0.0000       3.161756        86.0357 
  53   0.0000       3.192963        86.8849 
  54   0.0000       3.295479        89.6746 
  55   0.0000       3.295512        89.6754 
  56   0.0000       3.405567        92.6702 
  57   0.0000       3.405605        92.6712 
  58   0.0000       3.629003        98.7502 
  59   0.0000       3.707655       100.8904 
  60   0.0000       4.307670       117.2177 
  61   0.0000       4.307728       117.2193 
  62   0.0000       4.737751       128.9207 
  63   0.0000      22.203399       604.1852 

                 SPIN DOWN ORBITALS
  NO   OCC          E(Eh)            E(eV) 
   0   1.0000     -10.276065      -279.6259 
   1   1.0000      -0.758580       -20.6420 
   2   1.0000      -0.506856       -13.7923 
   3   1.0000      -0.506814       -13.7911 
   4   0.0000       0.007405         0.2015 
   5   0.0000       0.086513         2.3541 
   6   0.0000       0.165012         4.4902 
   7   0.0000       0.165023         4.4905 
   8   0.0000       0.204136         5.5548 
   9   0.0000       0.204141         5.5549 
  10   0.0000       0.221598         6.0300 
  11   0.0000       0.262776         7.1505 
  12   0.0000       0.262776         7.1505 
  13   0.0000       0.266270         7.2456 
  14   0.0000       0.316972         8.6252 
  15   0.0000       0.369504        10.0547 
  16   0.0000       0.375022        10.2049 
  17   0.0000       0.375669        10.2225 
  18   0.0000       0.375685        10.2229 
  19   0.0000       0.397330        10.8119 
  20   0.0000       0.397337        10.8121 
  21   0.0000       0.476720        12.9722 
  22   0.0000       0.476728        12.9724 
  23   0.0000       0.523016        14.2320 
  24   0.0000       0.524410        14.2699 
  25   0.0000       0.524413        14.2700 
  26   0.0000       0.536336        14.5945 
  27   0.0000       0.787976        21.4419 
  28   0.0000       0.808579        22.0025 
  29   0.0000       0.808591        22.0029 
  30   0.0000       0.916988        24.9525 
  31   0.0000       0.917012        24.9532 
  32   0.0000       1.053667        28.6717 
  33   0.0000       1.053688        28.6723 
  34   0.0000       1.089596        29.6494 
  35   0.0000       1.617243        44.0074 
  36   0.0000       1.668324        45.3974 
  37   0.0000       1.741357        47.3847 
  38   0.0000       1.868449        50.8431 
  39   0.0000       1.868529        50.8453 
  40   0.0000       1.976605        53.7861 
  41   0.0000       1.976655        53.7875 
  42   0.0000       2.008243        54.6471 
  43   0.0000       2.289668        62.3050 
  44   0.0000       2.342016        63.7295 
  45   0.0000       2.342071        63.7310 
  46   0.0000       2.528956        68.8164 
  47   0.0000       2.529011        68.8179 
  48   0.0000       2.717433        73.9451 
  49   0.0000       2.717453        73.9457 
  50   0.0000       2.808657        76.4274 
  51   0.0000       3.223974        87.7288 
  52   0.0000       3.223988        87.7292 
  53   0.0000       3.240067        88.1667 
  54   0.0000       3.333851        90.7187 
  55   0.0000       3.334019        90.7233 
  56   0.0000       3.433946        93.4424 
  57   0.0000       3.433954        93.4426 
  58   0.0000       3.671689        99.9117 
  59   0.0000       3.719740       101.2193 
  60   0.0000       4.329050       117.7994 
  61   0.0000       4.329161       117.8025 
  62   0.0000       4.761468       129.5661 
  63   0.0000      22.224175       604.7505 

                    ********************************
                    * MULLIKEN POPULATION ANALYSIS *
                    ********************************

--------------------------------------------
MULLIKEN ATOMIC CHARGES AND SPIN POPULATIONS
--------------------------------------------
   0 C :   -0.744747    0.916824
   1 H :    0.248211    0.027635
   2 H :    0.248268    0.027770
   3 H :    0.248267    0.027770
Sum of atomic charges         :   -0.0000000
Sum of atomic spin populations:    1.0000000

-----------------------------------------------------
MULLIKEN REDUCED ORBITAL CHARGES AND SPIN POPULATIONS
-----------------------------------------------------
CHARGE
  0 C s       :     3.461601  s :     3.461601
      pz      :     0.930122  p :     3.251282
      px      :     1.160523
      py      :     1.160637
      dz2     :     0.004448  d :     0.029843
      dxz     :     0.001483
      dyz     :     0.001486
      dx2y2   :     0.011213
      dxy     :     0.011213
      f0      :     0.000125  f :     0.002021
      f+1     :     0.000450
      f-1     :     0.000450
      f+2     :    -0.000024
      f-2     :    -0.000023
      f+3     :     0.001043
      f-3     :     0.000000
  1 H s       :     0.701713  s :     0.701713
      pz      :     0.022820  p :     0.050076
      px      :     0.020044
      py      :     0.007212
  2 H s       :     0.701729  s :     0.701729
      pz      :     0.022767  p :     0.050003
      px      :     0.010423
      py      :     0.016813
  3 H s       :     0.701730  s :     0.701730
      pz      :     0.022767  p :     0.050002
      px      :     0.010423
      py      :     0.016813

SPIN
  0 C s       :    -0.044716  s :    -0.044716
      pz      :     0.921908  p :     0.966138
      px      :     0.022142
      py      :     0.022088
      dz2     :    -0.004248  d :    -0.003208
      dxz     :    -0.000367
      dyz     :    -0.000371
      dx2y2   :     0.000882
      dxy     :     0.000897
      f0      :    -0.000042  f :    -0.001390
      f+1     :    -0.000621
      f-1     :    -0.000621
      f+2     :    -0.000005
      f-2     :    -0.000006
      f+3     :    -0.000095
      f-3     :    -0.000000
  1 H s       :    -0.002756  s :    -0.002756
      pz      :     0.022531  p :     0.030391
      px      :     0.004835
      py      :     0.003025
  2 H s       :    -0.002596  s :    -0.002596
      pz      :     0.022482  p :     0.030366
      px      :     0.003469
      py      :     0.004416
  3 H s       :    -0.002596  s :    -0.002596
      pz      :     0.022482  p :     0.030366
      px      :     0.003469
      py      :     0.004416


                     *******************************
                     * LOEWDIN POPULATION ANALYSIS *
                     *******************************

-------------------------------------------
LOEWDIN ATOMIC CHARGES AND SPIN POPULATIONS
-------------------------------------------
   0 C :    0.060402    0.835082
   1 H :   -0.020147    0.054969
   2 H :   -0.020127    0.054975
   3 H :   -0.020127    0.054975

----------------------------------------------------
LOEWDIN REDUCED ORBITAL CHARGES AND SPIN POPULATIONS
----------------------------------------------------
CHARGE
  0 C s       :     2.912402  s :     2.912402
      pz      :     0.792752  p :     2.909931
      px      :     1.058579
      py      :     1.058601
      dz2     :     0.011838  d :     0.108311
      dxz     :     0.002619
      dyz     :     0.002621
      dx2y2   :     0.045620
      dxy     :     0.045612
      f0      :     0.000249  f :     0.008955
      f+1     :     0.002094
      f-1     :     0.002094
      f+2     :     0.000437
      f-2     :     0.000438
      f+3     :     0.003644
      f-3     :     0.000000
  1 H s       :     0.761311  s :     0.761311
      pz      :     0.067636  p :     0.258836
      px      :     0.125749
      py      :     0.065450
  2 H s       :     0.761306  s :     0.761306
      pz      :     0.067625  p :     0.258821
      px      :     0.080526
      py      :     0.110671
  3 H s       :     0.761306  s :     0.761306
      pz      :     0.067625  p :     0.258821
      px      :     0.080526
      py      :     0.110671

SPIN
  0 C s       :     0.028833  s :     0.028833
      pz      :     0.786556  p :     0.816666
      px      :     0.015072
      py      :     0.015038
      dz2     :    -0.003720  d :    -0.008848
      dxz     :    -0.000320
      dyz     :    -0.000322
      dx2y2   :    -0.002251
      dxy     :    -0.002237
      f0      :    -0.000016  f :    -0.001569
      f+1     :    -0.000589
      f-1     :    -0.000588
      f+2     :    -0.000023
      f-2     :    -0.000024
      f+3     :    -0.000330
      f-3     :    -0.000000
  1 H s       :    -0.014364  s :    -0.014364
      pz      :     0.066391  p :     0.069333
      px      :     0.003422
      py      :    -0.000480
  2 H s       :    -0.014355  s :    -0.014355
      pz      :     0.066386  p :     0.069330
      px      :     0.000493
      py      :     0.002451
  3 H s       :    -0.014355  s :    -0.014355
      pz      :     0.066386  p :     0.069330
      px      :     0.000493
      py      :     0.002451


                      *****************************
                      * MAYER POPULATION ANALYSIS *
                      *****************************

  NA   - Mulliken gross atomic population
  ZA   - Total nuclear charge
  QA   - Mulliken gross atomic charge
  VA   - Mayer's total valence
  BVA  - Mayer's bonded valence
  FA   - Mayer's free valence

  ATOM       NA         ZA         QA         VA         BVA        FA
  0 C      6.7447     6.0000    -0.7447     3.7171     2.8514     0.8657
  1 H      0.7518     1.0000     0.2482     0.9937     0.9921     0.0015
  2 H      0.7517     1.0000     0.2483     0.9934     0.9919     0.0015
  3 H      0.7517     1.0000     0.2483     0.9934     0.9919     0.0015

  Mayer bond orders larger than 0.100000
B(  0-C ,  1-H ) :   0.9506 B(  0-C ,  2-H ) :   0.9504 B(  0-C ,  3-H ) :   0.9504 


-------
TIMINGS
-------

Total SCF time: 0 days 0 hours 0 min 7 sec 

Total time                  ....       7.346 sec
Sum of individual times     ....       6.755 sec  ( 92.0%)

Fock matrix formation       ....       5.642 sec  ( 76.8%)
  Split-RI-J                ....       0.801 sec  ( 14.2% of F)
  Chain of spheres X        ....       1.279 sec  ( 22.7% of F)
  XC integration            ....       1.102 sec  ( 19.5% of F)
    Basis function eval.    ....       0.054 sec  (  4.9% of XC)
    Density eval.           ....       0.052 sec  (  4.7% of XC)
    XC-Functional eval.     ....       0.053 sec  (  4.8% of XC)
    XC-Potential eval.      ....       0.076 sec  (  6.9% of XC)
Diagonalization             ....       0.181 sec  (  2.5%)
Density matrix formation    ....       0.007 sec  (  0.1%)
Population analysis         ....       0.124 sec  (  1.7%)
Initial guess               ....       0.098 sec  (  1.3%)
Orbital Transformation      ....       0.000 sec  (  0.0%)
Orbital Orthonormalization  ....       0.000 sec  (  0.0%)
DIIS solution               ....       0.297 sec  (  4.0%)
Grid generation             ....       0.407 sec  (  5.5%)

Maximum memory used throughout the entire SCF-calculation: 58.5 MB


-------------------------------------------------------------------------------
                          DFT DISPERSION CORRECTION                            
                                                                               
                              DFTD3 V3.1  Rev 1                                
                              USING zero damping                               
-------------------------------------------------------------------------------
The omegaB97X-D3 functional is recognized. Fit by Chai et al.
Active option DFTDOPT                   ...         3   

molecular C6(AA) [au] = 106.962279 


            DFT-D V3
 parameters
 s6 scaling factor         :     1.0000 
 rs6 scaling factor        :     1.2810 
 s8 scaling factor         :     1.0000 
 rs8 scaling factor        :     1.0940 
 Damping factor alpha6     :    14.0000 
 Damping factor alpha8     :    16.0000 
 ad hoc parameters k1-k3   :    16.0000     1.3333    -4.0000 

 Edisp/kcal,au: -0.010886864848  -0.000017349322 
 E6   /kcal   :  -0.001699586 
 E8   /kcal   :  -0.009187279 
 % E8         :  84.388654948 

-------------------------   ----------------
Dispersion correction           -0.000017349
-------------------------   ----------------


-------------------------   --------------------
FINAL SINGLE POINT ENERGY       -39.838694014143
-------------------------   --------------------



           ************************************************************
           *        Program running with 18 parallel MPI-processes    *
           *              working on a common directory               *
           ************************************************************
------------------------------------------------------------------------------
                         ORCA SCF GRADIENT CALCULATION
------------------------------------------------------------------------------

 ... reading COSX grid (gridx3)
Gradient of the Kohn-Sham DFT energy:
Kohn-Sham wavefunction type      ... UKS
Hartree-Fock exchange scaling    ...    0.196
Number of operators              ...    2
Number of atoms                  ...    4
Basis set dimensions             ...   64
Integral neglect threshold       ... 2.5e-11
Integral primitive cutoff        ... 2.5e-12
SHARK Integral package           ... ON

Nuc. rep. gradient       (SHARK) ... done (  0.0 sec)
HCore & Overlap gradient (SHARK) ... done (  0.0 sec)
RI-J gradient            (SHARK) ... done (  0.1 sec)
COSX-gradient                    ... done (  0.1 sec)
Exchange-correlation gradient    ... done
Dispersion correction            ... done

------------------
CARTESIAN GRADIENT
------------------

WARNING: THERE ARE 3 CONSTRAINED CARTESIAN COORDINATES
   1   C   :    0.000045770   -0.000000004    0.007790668
   2   H   :   -0.001038999   -0.000000012   -0.002601877
   3   H   :    0.000492951   -0.000911315   -0.002598342
   4   H   :    0.000492956    0.000911317   -0.002598327

Difference to translation invariance:
           :   -0.0000073223   -0.0000000132   -0.0000078782

Difference to rotation invariance:
           :   -0.0000000300    0.0000205456   -0.0000000186

Norm of the cartesian gradient     ...    0.0091758142
RMS gradient                       ...    0.0026488294
MAX gradient                       ...    0.0077906677

-------
TIMINGS
-------

Total SCF gradient time            ...        0.581 sec

One electron gradient       ....       0.007 sec  (  1.1%)
RI-J Coulomb gradient       ....       0.123 sec  ( 21.1%)
COSX gradient               ....       0.117 sec  ( 20.1%)
XC gradient                 ....       0.059 sec  ( 10.2%)

Maximum memory used throughout the entire SCFGRAD-calculation: 33.6 MB
------------------------------------------------------------------------------
                         ORCA GEOMETRY RELAXATION STEP
------------------------------------------------------------------------------

Reading the OPT-File                    .... done
Getting information on internals        .... done
Copying old internal coords+grads       .... done
Making the new internal coordinates     .... (new redundants).... done
Validating the new internal coordinates .... (new redundants).... done
Calculating the B-matrix                .... done
Calculating the G,G- and P matrices     .... done
Transforming gradient to internals      .... done
Projecting the internal gradient        .... done
Number of atoms                         ....   4
Number of internal coordinates          ....   7
Current Energy                          ....   -39.838694014 Eh
Current gradient norm                   ....     0.009175814 Eh/bohr
Maximum allowed component of the step   ....  0.300
Current trust radius                    ....  0.300
Evaluating the initial hessian          ....  (Almloef) done
Projecting the Hessian                  .... done
Forming the augmented Hessian           .... done
Diagonalizing the augmented Hessian     .... done
Last element of RFO vector              ....  0.999994607
Lowest eigenvalues of augmented Hessian:
 -0.000004029  0.373574723  0.373574723  0.373578752 1000.000000000
Length of the computed step             ....  0.003284124
The final length of the internal step   ....  0.003284124
Converting the step to cartesian space:
 Initial RMS(Int)=    0.0012412823
Transforming coordinates:
 Iter   0:  RMS(Cart)=    0.0009426158 RMS(Int)=    0.0012412823
 Iter   1:  RMS(Cart)=    0.0000000000 RMS(Int)=    0.0000000000
Imposing constraints:
 Iter   0:  RMS(Cart)=    0.0000000003 RMS(Int)=    0.0000000034
CONVERGED
done
Storing new coordinates                 .... done

                                .--------------------.
          ----------------------|Geometry convergence|-------------------------
          Item                value                   Tolerance       Converged
          ---------------------------------------------------------------------
          RMS gradient        0.0004637167            0.0001000000      NO
          MAX gradient        0.0007089929            0.0003000000      NO
          RMS step            0.0012412823            0.0020000000      YES
          MAX step            0.0018978406            0.0040000000      YES
          ........................................................
          Max(Bonds)      0.0010      Max(Angles)    0.00
          Max(Dihed)        0.00      Max(Improp)    0.00
          ---------------------------------------------------------------------

The optimization has not yet converged - more geometry cycles are needed


    ---------------------------------------------------------------------------
                         Redundant Internal Coordinates
                            (Angstroem and degrees)

        Definition                    Value    dE/dq     Step     New-Value
    ----------------------------------------------------------------------------
     1. B(H   1,C   0)                1.0800 -0.000709  0.0010    1.0810   
     2. B(H   2,C   0)                1.0800 -0.000708  0.0010    1.0810   
     3. B(H   3,C   0)                1.0800 -0.000708  0.0010    1.0810   
     4. A(H   2,C   0,H   3)          118.50 -0.001574   -0.00    118.50 C 
     5. A(H   1,C   0,H   2)          118.50 -0.000400   -0.00    118.50 C 
     6. A(H   1,C   0,H   3)          118.50 -0.000400   -0.00    118.50 C 
     7. I(H   1,H   3,H   2,C   0)     21.05  0.005347    0.00     21.05   
    ----------------------------------------------------------------------------

         *************************************************************
         *                GEOMETRY OPTIMIZATION CYCLE   2            *
         *************************************************************
---------------------------------
CARTESIAN COORDINATES (ANGSTROEM)
---------------------------------
  C     -0.000000    0.000000    0.000093
  H      1.072742    0.000000   -0.133303
  H     -0.536371    0.929021   -0.133303
  H     -0.536371   -0.929021   -0.133303

----------------------------
CARTESIAN COORDINATES (A.U.)
----------------------------
  NO LB      ZA    FRAG     MASS         X           Y           Z
   0 C     6.0000    0    12.011   -0.000001    0.000000    0.000175
   1 H     1.0000    0     1.008    2.027188    0.000000   -0.251906
   2 H     1.0000    0     1.008   -1.013594    1.755595   -0.251905
   3 H     1.0000    0     1.008   -1.013594   -1.755595   -0.251905

--------------------------------
INTERNAL COORDINATES (ANGSTROEM)
--------------------------------
 C      0   0   0     0.000000000000     0.00000000     0.00000000
 H      1   0   0     1.081004293947     0.00000000     0.00000000
 H      1   2   0     1.081002896588   118.49999999     0.00000000
 H      1   2   3     1.081002911736   118.49999999   155.87087297

---------------------------
INTERNAL COORDINATES (A.U.)
---------------------------
 C      0   0   0     0.000000000000     0.00000000     0.00000000
 H      1   0   0     2.042802065152     0.00000000     0.00000000
 H      1   2   0     2.042799424527   118.49999999     0.00000000
 H      1   2   3     2.042799453152   118.49999999   155.87087297



           ************************************************************
           *        Program running with 18 parallel MPI-processes    *
           *              working on a common directory               *
           ************************************************************
------------------------------------------------------------------------------
                   ___                                                        
                  /   \      - P O W E R E D   B Y -                         
                 /     \                                                     
                 |  |  |   _    _      __       _____    __    __             
                 |  |  |  | |  | |    /  \     |  _  \  |  |  /  |          
                  \  \/   | |  | |   /    \    | | | |  |  | /  /          
                 / \  \   | |__| |  /  /\  \   | |_| |  |  |/  /          
                |  |  |   |  __  | /  /__\  \  |    /   |      \           
                |  |  |   | |  | | |   __   |  |    \   |  |\   \          
                \     /   | |  | | |  |  |  |  | |\  \  |  | \   \       
                 \___/    |_|  |_| |__|  |__|  |_| \__\ |__|  \__/        
                                                                              
                      - O R C A' S   B I G   F R I E N D -                    
                                      &                                       
                       - I N T E G R A L  F E E D E R -                       
                                                                              
 v1 FN, 2020, v2 2021                                                         
------------------------------------------------------------------------------


Reading SHARK input file /beegfs/scratch/ispackman/PFAS_EPR_calcs/benchmark/JChemEd_CF3_radical/CH3_radical_118.5_degrees_IN-PROGRESS/CH3_radical_118.5_degrees.SHARKINP.tmp ... ok
----------------------
SHARK INTEGRAL PACKAGE
----------------------

Number of atoms                             ...      4
Number of basis functions                   ...     64
Number of shells                            ...     28
Maximum angular momentum                    ...      3
Integral batch strategy                     ... SHARK/LIBINT Hybrid
RI-J (if used) integral strategy            ... SPLIT-RIJ (Revised 2003 algorithm where possible)
Printlevel                                  ...      1
Contraction scheme used                     ... SEGMENTED contraction
Coulomb Range Separation                    ... NOT USED
Exchange Range Separation                   ... Long Range
   Mu parameter                             ...  0.250000
   Scaling (regular/separated)              ...  0.195728  0.804272
Finite Nucleus Model                        ... NOT USED
Auxiliary Coulomb fitting basis             ... AVAILABLE
   # of basis functions in Aux-J            ...     82
   # of shells in Aux-J                     ...     30
   Maximum angular momentum in Aux-J        ...      4
Auxiliary J/K fitting basis                 ... NOT available
Auxiliary Correlation fitting basis         ... NOT available
Auxiliary 'external' fitting basis          ... NOT available
Integral threshold                          ...     2.500000e-11
Primitive cut-off                           ...     2.500000e-12
Primitive pair pre-selection threshold      ...     2.500000e-12

Calculating pre-screening integrals         ... done (  0.0 sec) Dimension = 28
Organizing shell pair data                  ... done (  0.0 sec)
Shell pair information
Total number of shell pairs                 ...       406
Shell pairs after pre-screening             ...       406
Total number of primitive shell pairs       ...       977
Primitive shell pairs kept                  ...       944
          la=0 lb=0:    120 shell pairs
          la=1 lb=0:    135 shell pairs
          la=1 lb=1:     45 shell pairs
          la=2 lb=0:     45 shell pairs
          la=2 lb=1:     27 shell pairs
          la=2 lb=2:      6 shell pairs
          la=3 lb=0:     15 shell pairs
          la=3 lb=1:      9 shell pairs
          la=3 lb=2:      3 shell pairs
          la=3 lb=3:      1 shell pairs

Calculating one electron integrals          ... done (  0.0 sec)
Calculating RI/J V-Matrix + Cholesky decomp.... done (  0.0 sec)
Calculating Nuclear repulsion               ... done (  0.0 sec) ENN=      9.665844777294 Eh

SHARK setup successfully completed in   0.3 seconds

Maximum memory used throughout the entire GTOINT-calculation: 14.0 MB


           ************************************************************
           *        Program running with 18 parallel MPI-processes    *
           *              working on a common directory               *
           ************************************************************

Diagonalization of the overlap matrix:
Smallest eigenvalue                        ... 6.589e-05
Time for diagonalization                   ...    0.001 sec
Threshold for overlap eigenvalues          ... 1.000e-08
Number of eigenvalues below threshold      ... 0
Time for construction of square roots      ...    0.012 sec
Total time needed                          ...    0.014 sec

-------------------
DFT GRID GENERATION
-------------------

General Integration Accuracy     IntAcc      ... 4.388
Radial Grid Type                 RadialGrid  ... OptM3 with GC (2021)
Angular Grid (max. ang.)         AngularGrid ... 4 (Lebedev-302)
Angular grid pruning method      GridPruning ... 4 (adaptive)
Weight generation scheme         WeightScheme... Becke
Basis function cutoff            BFCut       ... 1.0000e-11
Integration weight cutoff        WCut        ... 1.0000e-14
Angular grids for H and He will be reduced by one unit
Partially contracted basis set               ... off
Rotationally invariant grid construction     ... off

Total number of grid points                  ...    17041
Total number of batches                      ...      268
Average number of points per batch           ...       63
Average number of grid points per atom       ...     4260
Time for grid setup =    0.093 sec

--------------------
COSX GRID GENERATION
--------------------

GRIDX 1
-------
General Integration Accuracy     IntAcc      ... 3.816
Radial Grid Type                 RadialGrid  ... OptM3 with GC (2021)
Angular Grid (max. ang.)         AngularGrid ... 1 (Lebedev-50)
Angular grid pruning method      GridPruning ... 4 (adaptive)
Weight generation scheme         WeightScheme... Becke
Basis function cutoff            BFCut       ... 1.0000e-11
Integration weight cutoff        WCut        ... 1.0000e-14
Angular grids for H and He will be reduced by one unit
Partially contracted basis set               ... on
Rotationally invariant grid construction     ... off

Total number of grid points                  ...     2148
Total number of batches                      ...       35
Average number of points per batch           ...       61
Average number of grid points per atom       ...      537
UseSFitting                                  ... on

GRIDX 2
-------
General Integration Accuracy     IntAcc      ... 4.020
Radial Grid Type                 RadialGrid  ... OptM3 with GC (2021)
Angular Grid (max. ang.)         AngularGrid ... 2 (Lebedev-110)
Angular grid pruning method      GridPruning ... 4 (adaptive)
Weight generation scheme         WeightScheme... Becke
Basis function cutoff            BFCut       ... 1.0000e-11
Integration weight cutoff        WCut        ... 1.0000e-14
Angular grids for H and He will be reduced by one unit
Partially contracted basis set               ... on
Rotationally invariant grid construction     ... off

Total number of grid points                  ...     5054
Total number of batches                      ...       81
Average number of points per batch           ...       62
Average number of grid points per atom       ...     1264
UseSFitting                                  ... on

GRIDX 3
-------
General Integration Accuracy     IntAcc      ... 4.338
Radial Grid Type                 RadialGrid  ... OptM3 with GC (2021)
Angular Grid (max. ang.)         AngularGrid ... 3 (Lebedev-194)
Angular grid pruning method      GridPruning ... 4 (adaptive)
Weight generation scheme         WeightScheme... Becke
Basis function cutoff            BFCut       ... 1.0000e-11
Integration weight cutoff        WCut        ... 1.0000e-14
Angular grids for H and He will be reduced by one unit
Partially contracted basis set               ... on
Rotationally invariant grid construction     ... off

Total number of grid points                  ...    11726
Total number of batches                      ...      186
Average number of points per batch           ...       63
Average number of grid points per atom       ...     2932
UseSFitting                                  ... on

Time for X-Grid setup             =    0.257 sec

--------------
SCF ITERATIONS
--------------
ITER       Energy         Delta-E        Max-DP      RMS-DP      [F,P]     Damp
               ***  Starting incremental Fock matrix formation  ***
  0    -39.8386739605   0.000000000000 0.00007063  0.00000333  0.0002703 0.7000
  1    -39.8386741421  -0.000000181655 0.00005967  0.00000258  0.0001856 0.7000
                               ***Turning on DIIS***
  2    -39.8386742644  -0.000000122270 0.00015765  0.00000601  0.0001186 0.0000
               *** Restarting incremental Fock matrix formation ***
                                   *** Resetting DIIS ***
  3    -39.8386745381  -0.000000273712 0.00006112  0.00000191  0.0000587 0.0000
  4    -39.8386745469  -0.000000008817 0.00001303  0.00000057  0.0000257 0.0000
  5    -39.8386745500  -0.000000003037 0.00000778  0.00000032  0.0000075 0.0000
                 **** Energy Check signals convergence ****

               *****************************************************
               *                     SUCCESS                       *
               *           SCF CONVERGED AFTER   6 CYCLES          *
               *****************************************************

Old exchange energy                            =     -2.172566268 Eh
New exchange energy                            =     -2.172570291 Eh
Exchange energy change after final integration =     -0.000004023 Eh
Total energy after final integration           =    -39.838678573 Eh
Final COS-X integration done in                =     0.115 sec
Total Energy       :          -39.83867857 Eh           -1084.06556 eV
  Last Energy change         ...   -2.9146e-10  Tolerance :   1.0000e-08
  Last MAX-Density change    ...    0.0000e+00  Tolerance :   1.0000e-07
             **** THE GBW FILE WAS UPDATED (/beegfs/scratch/ispackman/PFAS_EPR_calcs/benchmark/JChemEd_CF3_radical/CH3_radical_118.5_degrees_IN-PROGRESS/CH3_radical_118.5_degrees.gbw) ****
             **** DENSITY /beegfs/scratch/ispackman/PFAS_EPR_calcs/benchmark/JChemEd_CF3_radical/CH3_radical_118.5_degrees_IN-PROGRESS/CH3_radical_118.5_degrees.scfp WAS UPDATED ****
             **** ENERGY FILE WAS UPDATED (/beegfs/scratch/ispackman/PFAS_EPR_calcs/benchmark/JChemEd_CF3_radical/CH3_radical_118.5_degrees_IN-PROGRESS/CH3_radical_118.5_degrees.en.tmp) ****
----------------------
UHF SPIN CONTAMINATION
----------------------

Warning: in a DFT calculation there is little theoretical justification to 
         calculate <S**2> as in Hartree-Fock theory. We will do it anyways
         but you should keep in mind that the values have only limited relevance

Expectation value of <S**2>     :     0.753701
Ideal value S*(S+1) for S=0.5   :     0.750000
Deviation                       :     0.003701

             **** THE GBW FILE WAS UPDATED (/beegfs/scratch/ispackman/PFAS_EPR_calcs/benchmark/JChemEd_CF3_radical/CH3_radical_118.5_degrees_IN-PROGRESS/CH3_radical_118.5_degrees.gbw) ****
             **** DENSITY /beegfs/scratch/ispackman/PFAS_EPR_calcs/benchmark/JChemEd_CF3_radical/CH3_radical_118.5_degrees_IN-PROGRESS/CH3_radical_118.5_degrees.scfp WAS UPDATED ****
Total SCF time: 0 days 0 hours 0 min 4 sec 

Maximum memory used throughout the entire SCF-calculation: 58.5 MB


-------------------------------------------------------------------------------
                          DFT DISPERSION CORRECTION                            
                                                                               
                              DFTD3 V3.1  Rev 1                                
                              USING zero damping                               
-------------------------------------------------------------------------------
-------------------------   ----------------
Dispersion correction           -0.000017478
-------------------------   ----------------


-------------------------   --------------------
FINAL SINGLE POINT ENERGY       -39.838696051635
-------------------------   --------------------



           ************************************************************
           *        Program running with 18 parallel MPI-processes    *
           *              working on a common directory               *
           ************************************************************
------------------------------------------------------------------------------
                         ORCA SCF GRADIENT CALCULATION
------------------------------------------------------------------------------

 ... reading COSX grid (gridx3)
Gradient of the Kohn-Sham DFT energy:
Kohn-Sham wavefunction type      ... UKS
Hartree-Fock exchange scaling    ...    0.196
Number of operators              ...    2
Number of atoms                  ...    4
Basis set dimensions             ...   64
Integral neglect threshold       ... 2.5e-11
Integral primitive cutoff        ... 2.5e-12
SHARK Integral package           ... ON

Nuc. rep. gradient       (SHARK) ... done (  0.0 sec)
HCore & Overlap gradient (SHARK) ... done (  0.0 sec)
RI-J gradient            (SHARK) ... done (  0.1 sec)
COSX-gradient                    ... done (  0.1 sec)
Exchange-correlation gradient    ... done
Dispersion correction            ... done

------------------
CARTESIAN GRADIENT
------------------

WARNING: THERE ARE 3 CONSTRAINED CARTESIAN COORDINATES
   1   C   :    0.000044851   -0.000000033    0.007999331
   2   H   :   -0.000335391   -0.000000008   -0.002671355
   3   H   :    0.000141509   -0.000302971   -0.002667935
   4   H   :    0.000141506    0.000302956   -0.002667917

Difference to translation invariance:
           :   -0.0000075242   -0.0000000559   -0.0000078753

Difference to rotation invariance:
           :   -0.0000000382    0.0000201602   -0.0000000069

Norm of the cartesian gradient     ...    0.0092573869
RMS gradient                       ...    0.0026723774
MAX gradient                       ...    0.0079993311

-------
TIMINGS
-------

Total SCF gradient time            ...        0.618 sec

One electron gradient       ....       0.006 sec  (  0.9%)
RI-J Coulomb gradient       ....       0.109 sec  ( 17.6%)
COSX gradient               ....       0.116 sec  ( 18.8%)
XC gradient                 ....       0.065 sec  ( 10.6%)

Maximum memory used throughout the entire SCFGRAD-calculation: 33.6 MB
------------------------------------------------------------------------------
                         ORCA GEOMETRY RELAXATION STEP
------------------------------------------------------------------------------

Reading the OPT-File                    .... done
Getting information on internals        .... done
Copying old internal coords+grads       .... done
Making the new internal coordinates     .... (new redundants).... done
Validating the new internal coordinates .... (new redundants).... done
Calculating the B-matrix                .... done
Calculating the G,G- and P matrices     .... done
Transforming gradient to internals      .... done
Projecting the internal gradient        .... done
Number of atoms                         ....   4
Number of internal coordinates          ....   7
Current Energy                          ....   -39.838696052 Eh
Current gradient norm                   ....     0.009257387 Eh/bohr
Maximum allowed component of the step   ....  0.300
Current trust radius                    ....  0.300
Updating the Hessian (BFGS)             .... done
Forming the augmented Hessian           .... done
Diagonalizing the augmented Hessian     .... done
Last element of RFO vector              ....  1.000000000
Lowest eigenvalues of augmented Hessian:
 -0.000000000  0.372411865  0.373574723  0.373575650 999.999999428
Length of the computed step             ....  0.000010286
The final length of the internal step   ....  0.000010286
Converting the step to cartesian space:
 Initial RMS(Int)=    0.0000038878
Transforming coordinates:
 Iter   0:  RMS(Cart)=    0.0000029519 RMS(Int)=    0.0000038878
 Iter   1:  RMS(Cart)=    0.0000000000 RMS(Int)=    0.0000000000
Imposing constraints:
 Iter   0:  RMS(Cart)=    0.0000000002 RMS(Int)=    0.0000000032
CONVERGED
done
Storing new coordinates                 .... done

                                .--------------------.
          ----------------------|Geometry convergence|-------------------------
          Item                value                   Tolerance       Converged
          ---------------------------------------------------------------------
          Energy change      -0.0000020375            0.0000050000      YES
          RMS gradient        0.0000014479            0.0001000000      YES
          MAX gradient        0.0000022588            0.0003000000      YES
          RMS step            0.0000038878            0.0020000000      YES
          MAX step            0.0000060652            0.0040000000      YES
          ........................................................
          Max(Bonds)      0.0000      Max(Angles)    0.00
          Max(Dihed)        0.00      Max(Improp)    0.00
          ---------------------------------------------------------------------

                    ***********************HURRAY********************
                    ***        THE OPTIMIZATION HAS CONVERGED     ***
                    *************************************************


    ---------------------------------------------------------------------------
                         Redundant Internal Coordinates

                          --- Optimized Parameters ---  
                            (Angstroem and degrees)

        Definition                    OldVal   dE/dq     Step     FinalVal
    ----------------------------------------------------------------------------
     1. B(H   1,C   0)                1.0810 -0.000002  0.0000    1.0810   
     2. B(H   2,C   0)                1.0810 -0.000002  0.0000    1.0810   
     3. B(H   3,C   0)                1.0810 -0.000002  0.0000    1.0810   
     4. A(H   2,C   0,H   3)          118.50 -0.001565   -0.00    118.50 C 
     5. A(H   1,C   0,H   2)          118.50 -0.000397   -0.00    118.50 C 
     6. A(H   1,C   0,H   3)          118.50 -0.000397   -0.00    118.50 C 
     7. I(H   1,H   3,H   2,C   0)     21.05  0.005317    0.00     21.05   
    ----------------------------------------------------------------------------
                 *******************************************************
                 *** FINAL ENERGY EVALUATION AT THE STATIONARY POINT ***
                 ***               (AFTER    2 CYCLES)               ***
                 *******************************************************
---------------------------------
CARTESIAN COORDINATES (ANGSTROEM)
---------------------------------
  C     -0.000000    0.000000    0.000093
  H      1.072745    0.000000   -0.133303
  H     -0.536372    0.929024   -0.133303
  H     -0.536372   -0.929024   -0.133303

----------------------------
CARTESIAN COORDINATES (A.U.)
----------------------------
  NO LB      ZA    FRAG     MASS         X           Y           Z
   0 C     6.0000    0    12.011   -0.000001    0.000000    0.000176
   1 H     1.0000    0     1.008    2.027194    0.000000   -0.251906
   2 H     1.0000    0     1.008   -1.013597    1.755600   -0.251906
   3 H     1.0000    0     1.008   -1.013597   -1.755600   -0.251906

--------------------------------
INTERNAL COORDINATES (ANGSTROEM)
--------------------------------
 C      0   0   0     0.000000000000     0.00000000     0.00000000
 H      1   0   0     1.081007313709     0.00000000     0.00000000
 H      1   2   0     1.081006091576   118.49999998     0.00000000
 H      1   2   3     1.081006121319   118.49999998   155.87087288

---------------------------
INTERNAL COORDINATES (A.U.)
---------------------------
 C      0   0   0     0.000000000000     0.00000000     0.00000000
 H      1   0   0     2.042807771676     0.00000000     0.00000000
 H      1   2   0     2.042805462180   118.49999998     0.00000000
 H      1   2   3     2.042805518386   118.49999998   155.87087288

---------------------
BASIS SET INFORMATION
---------------------
There are 2 groups of distinct atoms

 Group   1 Type C   : 12s6p3d1f contracted to 6s3p3d1f pattern {621111/411/111/1}
 Group   2 Type H   : 5s2p contracted to 3s2p pattern {311/11}

Atom   0C    basis set group =>   1
Atom   1H    basis set group =>   2
Atom   2H    basis set group =>   2
Atom   3H    basis set group =>   2
---------------------------------
AUXILIARY/J BASIS SET INFORMATION
---------------------------------
There are 2 groups of distinct atoms

 Group   1 Type C   : 12s5p4d2f1g contracted to 6s4p3d1f1g pattern {711111/2111/211/2/1}
 Group   2 Type H   : 5s2p1d contracted to 3s1p1d pattern {311/2/1}

Atom   0C    basis set group =>   1
Atom   1H    basis set group =>   2
Atom   2H    basis set group =>   2
Atom   3H    basis set group =>   2


           ************************************************************
           *        Program running with 18 parallel MPI-processes    *
           *              working on a common directory               *
[...]

  NA   - Mulliken gross atomic population
  ZA   - Total nuclear charge
  QA   - Mulliken gross atomic charge
  VA   - Mayer's total valence
  BVA  - Mayer's bonded valence
  FA   - Mayer's free valence

  ATOM       NA         ZA         QA         VA         BVA        FA
  0 C      6.7442     6.0000    -0.7442     3.7174     2.8516     0.8658
  1 H      0.7520     1.0000     0.2480     0.9939     0.9924     0.0015
  2 H      0.7519     1.0000     0.2481     0.9937     0.9922     0.0015
  3 H      0.7519     1.0000     0.2481     0.9937     0.9922     0.0015

  Mayer bond orders larger than 0.100000
B(  0-C ,  1-H ) :   0.9507 B(  0-C ,  2-H ) :   0.9504 B(  0-C ,  3-H ) :   0.9504 


-------
TIMINGS
-------

Total SCF time: 0 days 0 hours 0 min 2 sec 

Total time                  ....       2.180 sec
Sum of individual times     ....       1.695 sec  ( 77.7%)

Fock matrix formation       ....       1.148 sec  ( 52.6%)
  Split-RI-J                ....       0.285 sec  ( 24.9% of F)
  Chain of spheres X        ....       0.335 sec  ( 29.2% of F)
  XC integration            ....       0.187 sec  ( 16.3% of F)
    Basis function eval.    ....       0.008 sec  (  4.5% of XC)
    Density eval.           ....       0.008 sec  (  4.3% of XC)
    XC-Functional eval.     ....       0.008 sec  (  4.4% of XC)
    XC-Potential eval.      ....       0.010 sec  (  5.3% of XC)
Diagonalization             ....       0.027 sec  (  1.3%)
Density matrix formation    ....       0.007 sec  (  0.3%)
Population analysis         ....       0.160 sec  (  7.3%)
Initial guess               ....       0.006 sec  (  0.3%)
Orbital Transformation      ....       0.000 sec  (  0.0%)
Orbital Orthonormalization  ....       0.002 sec  (  0.1%)
DIIS solution               ....       0.010 sec  (  0.5%)
Grid generation             ....       0.336 sec  ( 15.4%)

Maximum memory used throughout the entire SCF-calculation: 58.5 MB


-------------------------------------------------------------------------------
                          DFT DISPERSION CORRECTION                            
                                                                               
                              DFTD3 V3.1  Rev 1                                
                              USING zero damping                               
-------------------------------------------------------------------------------
The omegaB97X-D3 functional is recognized. Fit by Chai et al.
Active option DFTDOPT                   ...         3   

molecular C6(AA) [au] = 106.964489 


            DFT-D V3
 parameters
 s6 scaling factor         :     1.0000 
 rs6 scaling factor        :     1.2810 
 s8 scaling factor         :     1.0000 
 rs8 scaling factor        :     1.0940 
 Damping factor alpha6     :    14.0000 
 Damping factor alpha8     :    16.0000 
 ad hoc parameters k1-k3   :    16.0000     1.3333    -4.0000 

 Edisp/kcal,au: -0.010968078368  -0.000017478744 
 E6   /kcal   :  -0.001712318 
 E8   /kcal   :  -0.009255760 
 % E8         :  84.388166417 

-------------------------   ----------------
Dispersion correction           -0.000017479
-------------------------   ----------------


-------------------------   --------------------
FINAL SINGLE POINT ENERGY       -39.838695961336
-------------------------   --------------------

                                *** OPTIMIZATION RUN DONE ***

                            ***************************************
                            *     ORCA property calculations      *
                            ***************************************

                                    ---------------------
                                    Active property flags
                                    ---------------------
   (+) Dipole Moment


------------------------------------------------------------------------------
                       ORCA ELECTRIC PROPERTIES CALCULATION
------------------------------------------------------------------------------

Dipole Moment Calculation                       ... on
Quadrupole Moment Calculation                   ... off
Polarizability Calculation                      ... off
GBWName                                         ... /beegfs/scratch/ispackman/PFAS_EPR_calcs/benchmark/JChemEd_CF3_radical/CH3_radical_118.5_degrees_IN-PROGRESS/CH3_radical_118.5_degrees.gbw
Electron density                                ... /beegfs/scratch/ispackman/PFAS_EPR_calcs/benchmark/JChemEd_CF3_radical/CH3_radical_118.5_degrees_IN-PROGRESS/CH3_radical_118.5_degrees.scfp
The origin for moment calculation is the CENTER OF MASS  = (-0.000000,  0.000000 -0.050525)

-------------
DIPOLE MOMENT
-------------
                                X             Y             Z
Electronic contribution:     -0.00009      -0.00000       0.19086
Nuclear contribution   :      0.00000      -0.00000      -0.29993
                        -----------------------------------------
Total Dipole Moment    :     -0.00009      -0.00000      -0.10907
                        -----------------------------------------
Magnitude (a.u.)       :      0.10907
Magnitude (Debye)      :      0.27724



--------------------
Rotational spectrum 
--------------------
 
Rotational constants in cm-1:     9.454830     9.454816     4.844206 
Rotational constants in MHz : 283448.666119 283448.254067 145225.634995 

 Dipole components along the rotational axes: 
x,y,z [a.u.] :     0.000093     0.000001    -0.109074 
x,y,z [Debye]:     0.000236     0.000002    -0.277245 

 


           ************************************************************
           *        Program running with 18 parallel MPI-processes    *
           *              working on a common directory               *
           ************************************************************

-------------------------------------------------------------------------------
                               ORCA SCF HESSIAN
-------------------------------------------------------------------------------

                   --------- SHARK INITIALIZATION DONE ---------

Hessian of the Kohn-Sham DFT energy:
Kohn-Sham wavefunction type                      ... UKS
Hartree-Fock exchange scaling                    ...    0.196
Number of operators                              ...    2
Number of atoms                                  ...    4
Basis set dimensions                             ...   64
Integral neglect threshold                       ... 2.5e-11
Integral primitive cutoff                        ... 2.5e-12

Setting up DFT Hessian calculations              ... 

HESS GRID
---------

General Integration Accuracy     IntAcc      ... 4.629
Radial Grid Type                 RadialGrid  ... OptM3 with GC (2021)
Angular Grid (max. ang.)         AngularGrid ... 5 (Lebedev-434)
Angular grid pruning method      GridPruning ... 4 (adaptive)
Weight generation scheme         WeightScheme... Becke
Basis function cutoff            BFCut       ... 1.0000e-11
Integration weight cutoff        WCut        ... 1.0000e-14
Angular grids for H and He will be reduced by one unit
Partially contracted basis set               ... off
Rotationally invariant grid construction     ... off

Total number of grid points                  ...    27242
Total number of batches                      ...      428
Average number of points per batch           ...       63
Average number of grid points per atom       ...     6810

Building densities                               ... done   (      0.0 sec)
Calculating rho(r) on the grid                   ... done   (      0.1 sec)
Building xc-kernel on the grid                   ... done   (      0.1 sec)
                                                     done   (      0.4 sec)

Nuclear repulsion Hessian  (SHARK)               ... done   (      0.0 sec)

----------------------------------------------
Forming right-hand sides of CP-SCF equations     ...
----------------------------------------------
One electron integral derivatives  (SHARK)       ... done   (      0.0 sec)
Transforming the overlap derivative matrices     ... done   (      0.0 sec)
Making the Q(x) pseudodensities                  ... done   (      0.0 sec)
Adding the E*S(x)*S(y) terms to the Hessian      ... done   (      0.0 sec)
Calculating energy weighted overlap derivatives  ... done   (      0.0 sec)
Two electron integral derivatives (SHARK-RI)     ... done   (      0.6 sec)
Exchange-correlation integral derivatives        ... done   (      0.4 sec)
tr(F(y)Q(x)) contribution to the Hessian         ... done   (      0.0 sec)
Response fock operator R(S(x)) (SHARK-RIJCOSX)   ... done   (      0.5 sec)
XC Response fock operator R(S(x))                ... done   (      0.1 sec)
tr(F(y)S(x)) contribution to the Hessian         ... done   (      0.0 sec)
Transforming and finalizing RHSs                 ... done   (      0.0 sec)

----------------------------------------------
Solving the CP-SCF equations (RIJCOSX)           ...
----------------------------------------------
     CP-SCF ITERATION   0:   8.2103e-02 (   0.3 sec   0/ 12 done)
     CP-SCF ITERATION   1:   2.9929e-02 (   0.3 sec   0/ 12 done)
     CP-SCF ITERATION   2:   7.7353e-03 (   0.3 sec   0/ 12 done)
     CP-SCF ITERATION   3:   2.1392e-03 (   0.3 sec   0/ 12 done)
     CP-SCF ITERATION   4:   4.4288e-04 (   0.3 sec   1/ 12 done)
     CP-SCF ITERATION   5:   7.5225e-05 (   0.3 sec  12/ 12 done)
                    *** THE CP-SCF HAS CONVERGED ***

                                                 ... done   (      2.0 sec)
Forming perturbed density Hessian contributions  ... done   (      0.0 sec)
2nd integral derivative contribs (SHARK-RI)      ... done   (      0.7 sec)
Exchange-correlation Hessian                     ... done   (      0.2 sec)
Dispersion correction in the Hessian             ... done   (      0.1 sec)
Dipole derivatives                               ... (center of mass: -0.000000,  0.000000 -0.050525)done   (      0.1 sec)

Total SCF Hessian time: 0 days 0 hours 0 min 5 sec 

Writing the Hessian file to the disk             ... done


Maximum memory used throughout the entire SCFHESS-calculation: 109.8 MB

-----------------------
VIBRATIONAL FREQUENCIES
-----------------------

Scaling factor for frequencies =  1.000000000  (already applied!)

   0:         0.00 cm**-1
   1:         0.00 cm**-1
   2:         0.00 cm**-1
   3:         0.00 cm**-1
   4:         0.00 cm**-1
   5:         0.00 cm**-1
   6:       688.24 cm**-1
   7:      1408.47 cm**-1
   8:      1411.01 cm**-1
   9:      3123.61 cm**-1
  10:      3294.79 cm**-1
  11:      3295.75 cm**-1


------------
NORMAL MODES
------------

These modes are the Cartesian displacements weighted by the diagonal matrix
M(i,i)=1/sqrt(m[i]) where m[i] is the mass of the displaced atom
Thus, these vectors are normalized but *not* orthogonal

                  0          1          2          3          4          5    
      0       0.000000   0.000000   0.000000   0.000000   0.000000   0.000000
      1       0.000000   0.000000   0.000000   0.000000   0.000000   0.000000
      2       0.000000   0.000000   0.000000   0.000000   0.000000   0.000000
      3       0.000000   0.000000   0.000000   0.000000   0.000000   0.000000
      4       0.000000   0.000000   0.000000   0.000000   0.000000   0.000000
      5       0.000000   0.000000   0.000000   0.000000   0.000000   0.000000
      6       0.000000   0.000000   0.000000   0.000000   0.000000   0.000000
      7       0.000000   0.000000   0.000000   0.000000   0.000000   0.000000
      8       0.000000   0.000000   0.000000   0.000000   0.000000   0.000000
      9       0.000000   0.000000   0.000000   0.000000   0.000000   0.000000
     10       0.000000   0.000000   0.000000   0.000000   0.000000   0.000000
     11       0.000000   0.000000   0.000000   0.000000   0.000000   0.000000
                  6          7          8          9         10         11    
      0      -0.000256  -0.090689  -0.000000  -0.000210  -0.099443  -0.000008
      1       0.000000   0.000000  -0.090668   0.000000  -0.000008   0.099464
      2       0.142787  -0.000350   0.000000   0.014255  -0.000042  -0.000000
      3      -0.070134  -0.083322  -0.000000   0.576146   0.805030   0.000065
      4      -0.000000  -0.000002   0.803850   0.000000  -0.000001   0.016203
      5      -0.567385  -0.088194  -0.000000  -0.056828  -0.098064  -0.000008
      6       0.036593   0.581970   0.384282  -0.286824   0.189923   0.356179
      7      -0.059567   0.384323   0.138259   0.496839  -0.357302  -0.600720
      8      -0.567006   0.046182  -0.077563  -0.056517   0.049275   0.085092
      9       0.036593   0.581972  -0.384278  -0.286825   0.189981  -0.356148
     10       0.059567  -0.384324   0.138257  -0.496839   0.357400  -0.600662
     11      -0.567006   0.046181   0.077563  -0.056518   0.049289  -0.085084


-----------
IR SPECTRUM
-----------

 Mode   freq       eps      Int      T**2         TX        TY        TZ
       cm**-1   L/(mol*cm) km/mol    a.u.
----------------------------------------------------------------------------
  6:    688.24   0.012648   63.92  0.005735  ( 0.000137 -0.000000 -0.075729)
  7:   1408.47   0.000546    2.76  0.000121  ( 0.010998 -0.000000  0.000161)
  8:   1411.01   0.000559    2.83  0.000124  ( 0.000000  0.011122 -0.000000)
  9:   3123.61   0.000002    0.01  0.000000  (-0.000107  0.000000  0.000453)
 10:   3294.79   0.001267    6.40  0.000120  (-0.010954 -0.000001 -0.000010)
 11:   3295.75   0.001235    6.24  0.000117  (-0.000001  0.010812  0.000000)

* The epsilon (eps) is given for a Dirac delta lineshape.
** The dipole moment derivative (T) already includes vibrational overlap.

The first frequency considered to be a vibration is 6
The total number of vibrations considered is 6


--------------------------
THERMOCHEMISTRY AT 298.15K
--------------------------

Temperature         ... 298.15 K
Pressure            ... 1.00 atm
Total Mass          ... 15.03 AMU

Throughout the following assumptions are being made:
  (1) The electronic state is orbitally nondegenerate
      but the spin degeneracy is treated
  (2) There are no thermally accessible electronically excited states
  (3) Hindered rotations indicated by low frequency modes are not
      treated as such but are treated as vibrations and this may
      cause some error
  (4) All equations used are the standard statistical mechanics
      equations for an ideal gas
  (5) All vibrations are strictly harmonic

freq.     688.24  E(vib)   ...       0.07 
freq.    1408.47  E(vib)   ...       0.00 
freq.    1411.01  E(vib)   ...       0.00 
freq.    3123.61  E(vib)   ...       0.00 
freq.    3294.79  E(vib)   ...       0.00 
freq.    3295.75  E(vib)   ...       0.00 

------------
INNER ENERGY
------------

The inner energy is: U= E(el) + E(ZPE) + E(vib) + E(rot) + E(trans)
    E(el)   - is the total energy from the electronic structure calculation
              = E(kin-el) + E(nuc-el) + E(el-el) + E(nuc-nuc)
    E(ZPE)  - the the zero temperature vibrational energy from the frequency calculation
    E(vib)  - the the finite temperature correction to E(ZPE) due to population
              of excited vibrational states
    E(rot)  - is the rotational thermal energy
    E(trans)- is the translational thermal energy

Summary of contributions to the inner energy U:
Electronic energy                ...    -39.83869596 Eh
Zero point energy                ...      0.03012164 Eh      18.90 kcal/mol
Thermal vibrational correction   ...      0.00013177 Eh       0.08 kcal/mol
Thermal rotational correction    ...      0.00141627 Eh       0.89 kcal/mol
Thermal translational correction ...      0.00141627 Eh       0.89 kcal/mol
-----------------------------------------------------------------------
Total thermal energy                    -39.80561000 Eh


Summary of corrections to the electronic energy:
(perhaps to be used in another calculation)
Total thermal correction                  0.00296432 Eh       1.86 kcal/mol
Non-thermal (ZPE) correction              0.03012164 Eh      18.90 kcal/mol
-----------------------------------------------------------------------
Total correction                          0.03308596 Eh      20.76 kcal/mol


--------
ENTHALPY
--------

The enthalpy is H = U + kB*T
                kB is Boltzmann's constant
Total free energy                 ...    -39.80561000 Eh 
Thermal Enthalpy correction       ...      0.00094421 Eh       0.59 kcal/mol
-----------------------------------------------------------------------
Total Enthalpy                    ...    -39.80466580 Eh


Note: Rotational entropy computed according to Herzberg 
Infrared and Raman Spectra, Chapter V,1, Van Nostrand Reinhold, 1945 
Point Group:  C3v, Symmetry Number:   3  
Rotational constants in cm-1:     9.454830     9.454816     4.844206 

Vibrational entropy computed according to the QRRHO of S. Grimme
Chem.Eur.J. 2012 18 9955


-------
ENTROPY
-------

The entropy contributions are T*S = T*(S(el)+S(vib)+S(rot)+S(trans))
     S(el)   - electronic entropy
     S(vib)  - vibrational entropy
     S(rot)  - rotational entropy
     S(trans)- translational entropy
The entropies will be listed as multiplied by the temperature to get
units of energy

Electronic entropy                ...      0.00065446 Eh      0.41 kcal/mol
Vibrational entropy               ...      0.00016873 Eh      0.11 kcal/mol
Rotational entropy                ...      0.00560754 Eh      3.52 kcal/mol
Translational entropy             ...      0.01618771 Eh     10.16 kcal/mol
-----------------------------------------------------------------------
Final entropy term                ...      0.02261843 Eh     14.19 kcal/mol

In case the symmetry of your molecule has not been determined correctly
or in case you have a reason to use a different symmetry number we print 
out the resulting rotational entropy values for sn=1,12 :
 --------------------------------------------------------
|  sn= 1 | S(rot)=       0.00664483 Eh      4.17 kcal/mol|
|  sn= 2 | S(rot)=       0.00599037 Eh      3.76 kcal/mol|
|  sn= 3 | S(rot)=       0.00560754 Eh      3.52 kcal/mol|
|  sn= 4 | S(rot)=       0.00533591 Eh      3.35 kcal/mol|
|  sn= 5 | S(rot)=       0.00512523 Eh      3.22 kcal/mol|
|  sn= 6 | S(rot)=       0.00495308 Eh      3.11 kcal/mol|
|  sn= 7 | S(rot)=       0.00480754 Eh      3.02 kcal/mol|
|  sn= 8 | S(rot)=       0.00468146 Eh      2.94 kcal/mol|
|  sn= 9 | S(rot)=       0.00457025 Eh      2.87 kcal/mol|
|  sn=10 | S(rot)=       0.00447077 Eh      2.81 kcal/mol|
|  sn=11 | S(rot)=       0.00438078 Eh      2.75 kcal/mol|
|  sn=12 | S(rot)=       0.00429863 Eh      2.70 kcal/mol|
 --------------------------------------------------------


-------------------
GIBBS FREE ENERGY
-------------------

The Gibbs free energy is G = H - T*S

Total enthalpy                    ...    -39.80466580 Eh 
Total entropy correction          ...     -0.02261843 Eh    -14.19 kcal/mol
-----------------------------------------------------------------------
Final Gibbs free energy         ...    -39.82728423 Eh

For completeness - the Gibbs free energy minus the electronic energy
G-E(el)                           ...      0.01141173 Eh      7.16 kcal/mol


Timings for individual modules:

Sum of individual times         ...       44.605 sec (=   0.743 min)
GTO integral calculation        ...        8.742 sec (=   0.146 min)  19.6 %
SCF iterations                  ...       21.274 sec (=   0.355 min)  47.7 %
SCF Gradient evaluation         ...        5.993 sec (=   0.100 min)  13.4 %
Geometry relaxation             ...        0.137 sec (=   0.002 min)   0.3 %
Analytical frequency calculation...        8.460 sec (=   0.141 min)  19.0 %
                             ****ORCA TERMINATED NORMALLY****
TOTAL RUN TIME: 0 days 0 hours 0 minutes 52 seconds 461 msec

slurmID:    32260128
totalRuntime[s]:    52.516272438
