
                                 *****************
                                 * O   R   C   A *
                                 *****************

                                            #,                                       
                                            ###                                      
                                            ####                                     
                                            #####                                    
                                            ######                                   
                                           ########,                                 
                                     ,,################,,,,,                         
                               ,,#################################,,                 
                          ,,##########################################,,             
                       ,#########################################, ''#####,          
                    ,#############################################,,   '####,        
                  ,##################################################,,,,####,       
                ,###########''''           ''''###############################       
              ,#####''   ,,,,##########,,,,          '''####'''          '####       
            ,##' ,,,,###########################,,,                        '##       
           ' ,,###''''                  '''############,,,                           
         ,,##''                                '''############,,,,        ,,,,,,###''
      ,#''                                            '''#######################'''  
     '                                                          ''''####''''         
             ,#######,   #######,   ,#######,      ##                                
            ,#'     '#,  ##    ##  ,#'     '#,    #''#        ######   ,####,        
            ##       ##  ##   ,#'  ##            #'  '#       #        #'  '#        
            ##       ##  #######   ##           ,######,      #####,   #    #        
            '#,     ,#'  ##    ##  '#,     ,#' ,#      #,         ##   #,  ,#        
             '#######'   ##     ##  '#######'  #'      '#     #####' # '####'        



                  #######################################################
                  #                        -***-                        #
                  #          Department of theory and spectroscopy      #
                  #    Directorship and core code : Frank Neese         #
                  #        Max Planck Institute fuer Kohlenforschung    #
                  #                Kaiser Wilhelm Platz 1               #
                  #                 D-45470 Muelheim/Ruhr               #
                  #                      Germany                        #
                  #                                                     #
                  #                  All rights reserved                #
                  #                        -***-                        #
                  #######################################################


                         Program Version 5.0.4 -  RELEASE  -


 With contributions from (in alphabetic order):
   Daniel Aravena         : Magnetic Suceptibility
   Michael Atanasov       : Ab Initio Ligand Field Theory (pilot matlab implementation)
   Alexander A. Auer      : GIAO ZORA, VPT2 properties, NMR spectrum
   Ute Becker             : Parallelization
   Giovanni Bistoni       : ED, misc. LED, open-shell LED, HFLD
   Martin Brehm           : Molecular dynamics
   Dmytro Bykov           : SCF Hessian
   Vijay G. Chilkuri      : MRCI spin determinant printing, contributions to CSF-ICE
   Dipayan Datta          : RHF DLPNO-CCSD density
   Achintya Kumar Dutta   : EOM-CC, STEOM-CC
   Dmitry Ganyushin       : Spin-Orbit,Spin-Spin,Magnetic field MRCI
   Miquel Garcia          : C-PCM and meta-GGA Hessian, CC/C-PCM, Gaussian charge scheme
   Yang Guo               : DLPNO-NEVPT2, F12-NEVPT2, CIM, IAO-localization
   Andreas Hansen         : Spin unrestricted coupled pair/coupled cluster methods
   Benjamin Helmich-Paris : MC-RPA, TRAH-SCF, COSX integrals
   Lee Huntington         : MR-EOM, pCC
   Robert Izsak           : Overlap fitted RIJCOSX, COSX-SCS-MP3, EOM
   Marcus Kettner         : VPT2
   Christian Kollmar      : KDIIS, OOCD, Brueckner-CCSD(T), CCSD density, CASPT2, CASPT2-K
   Simone Kossmann        : Meta GGA functionals, TD-DFT gradient, OOMP2, MP2 Hessian
   Martin Krupicka        : Initial AUTO-CI
   Lucas Lang             : DCDCAS
   Marvin Lechner         : AUTO-CI (C++ implementation), FIC-MRCC
   Dagmar Lenk            : GEPOL surface, SMD
   Dimitrios Liakos       : Extrapolation schemes; Compound Job, initial MDCI parallelization
   Dimitrios Manganas     : Further ROCIS development; embedding schemes
   Dimitrios Pantazis     : SARC Basis sets
   Anastasios Papadopoulos: AUTO-CI, single reference methods and gradients
   Taras Petrenko         : DFT Hessian,TD-DFT gradient, ASA, ECA, R-Raman, ABS, FL, XAS/XES, NRVS
   Peter Pinski           : DLPNO-MP2, DLPNO-MP2 Gradient
   Christoph Reimann      : Effective Core Potentials
   Marius Retegan         : Local ZFS, SOC
   Christoph Riplinger    : Optimizer, TS searches, QM/MM, DLPNO-CCSD(T), (RO)-DLPNO pert. Triples
   Tobias Risthaus        : Range-separated hybrids, TD-DFT gradient, RPA, STAB
   Michael Roemelt        : Original ROCIS implementation
   Masaaki Saitow         : Open-shell DLPNO-CCSD energy and density
   Barbara Sandhoefer     : DKH picture change effects
   Avijit Sen             : IP-ROCIS
   Kantharuban Sivalingam : CASSCF convergence, NEVPT2, FIC-MRCI
   Bernardo de Souza      : ESD, SOC TD-DFT
   Georgi Stoychev        : AutoAux, RI-MP2 NMR, DLPNO-MP2 response
   Willem Van den Heuvel  : Paramagnetic NMR
   Boris Wezisla          : Elementary symmetry handling
   Frank Wennmohs         : Technical directorship


 We gratefully acknowledge several colleagues who have allowed us to
 interface, adapt or use parts of their codes:
   Stefan Grimme, W. Hujo, H. Kruse, P. Pracht,  : VdW corrections, initial TS optimization,
                  C. Bannwarth, S. Ehlert          DFT functionals, gCP, sTDA/sTD-DF
   Ed Valeev, F. Pavosevic, A. Kumar             : LibInt (2-el integral package), F12 methods
   Garnet Chan, S. Sharma, J. Yang, R. Olivares  : DMRG
   Ulf Ekstrom                                   : XCFun DFT Library
   Mihaly Kallay                                 : mrcc  (arbitrary order and MRCC methods)
   Jiri Pittner, Ondrej Demel                    : Mk-CCSD
   Frank Weinhold                                : gennbo (NPA and NBO analysis)
   Christopher J. Cramer and Donald G. Truhlar   : smd solvation model
   Lars Goerigk                                  : TD-DFT with DH, B97 family of functionals
   V. Asgeirsson, H. Jonsson                     : NEB implementation
   FAccTs GmbH                                   : IRC, NEB, NEB-TS, DLPNO-Multilevel, CI-OPT
                                                   MM, QMMM, 2- and 3-layer-ONIOM, Crystal-QMMM,
                                                   LR-CPCM, SF, NACMEs, symmetry and pop. for TD-DFT,
                                                   nearIR, NL-DFT gradient (VV10), updates on ESD,
                                                   ML-optimized integration grids
   S Lehtola, MJT Oliveira, MAL Marques          : LibXC Library
   Liviu Ungur et al                             : ANISO software


 Your calculation uses the libint2 library for the computation of 2-el integrals
 For citations please refer to: http://libint.valeyev.net

 Your ORCA version has been built with support for libXC version: 5.1.0
 For citations please refer to: https://tddft.org/programs/libxc/

 This ORCA versions uses:
   CBLAS   interface :  Fast vector & matrix operations
   LAPACKE interface :  Fast linear algebra routines
   SCALAPACK package :  Parallel linear algebra routines
   Shared memory     :  Shared parallel matrices
   BLAS/LAPACK       :  OpenBLAS 0.3.15  USE64BITINT DYNAMIC_ARCH NO_AFFINITY SkylakeX SINGLE_THREADED
        Core in use  :  SkylakeX
   Copyright (c) 2011-2014, The OpenBLAS Project


Your calculation utilizes the atom-pairwise dispersion correction
with the zero-damping scheme (D30)
Cite in your paper:
S.Grimme, J.Antony, S.Ehrlich and H.Krieg, J.Chem.Phys., 132, (2010), 154104 
   

XCFun DFT library Copyright 2009-2010 Ulf Ekstrom and contributors.
See http://admol.org/xcfun for more information.
This is free software; see the source code for copying conditions.
There is ABSOLUTELY NO WARRANTY; not even for MERCHANTABILITY or FITNESS FOR A PARTICULAR PURPOSE.
For details see the documentation.
Scientific users of this library should cite U. Ekstrom, L. Visscher, R. Bast, A. J. Thorvaldsen and K. Ruud;
J.Chem.Theor.Comp. 2010, DOI: 10.1021/ct100117s
XCFun Version 0.99 

================================================================================

----- Orbital basis set information -----
Your calculation utilizes the basis: def2-TZVPD
   F. Weigend and R. Ahlrichs, Phys. Chem. Chem. Phys. 7, 3297 (2005).
   D. Rappoport and F. Furche, J. Chem. Phys. 133 134105 (2010).

----- AuxJ basis set information -----
Your calculation utilizes the auxiliary basis: def2/J
   F. Weigend, Phys. Chem. Chem. Phys. 8, 1057 (2006).

================================================================================
                                        WARNINGS
                       Please study these warnings very carefully!
================================================================================


WARNING: Geometry Optimization
  ===> : Switching off AutoStart
         For restart on a previous wavefunction, please use MOREAD

INFO   : the flag for use of the SHARK integral package has been found!

================================================================================
                                       INPUT FILE
================================================================================
NAME = /beegfs/scratch/ispackman/PFAS_EPR_calcs/benchmark/JChemEd_CF3_radical/CH3_radical_101.5_degrees_IN-PROGRESS/CH3_radical_101.5_degrees.inp
|  1> ! UKS TightSCF wB97x-D3 def2-TZVPD xyzfile opt freq
|  2> 
|  3> # CH3 radical 101.5 degrees fixed
|  4> 
|  5> %maxcore 1000
|  6> %pal
|  7> nprocs 18
|  8> end
|  9> 
| 10> %geom Constraints
| 11>         { A * 0 * C }
| 12>     end
| 13> end
| 14> * xyz 0 2
| 15> C 0.00 0.00 0.00
| 16> H 0.9657269313 0.0000000000 -0.4834992184
| 17> H -0.4828634656 0.8363440556 -0.4834992184
| 18> H -0.4828634656 -0.8363440556 -0.4834992184
| 19> **                         ****END OF INPUT****
================================================================================

                       *****************************
                       * Geometry Optimization Run *
                       *****************************

Geometry optimization settings:
Update method            Update   .... BFGS
Choice of coordinates    CoordSys .... Z-matrix Internals
Initial Hessian          InHess   .... Almoef's Model

Convergence Tolerances:
Energy Change            TolE     ....  5.0000e-06 Eh
Max. Gradient            TolMAXG  ....  3.0000e-04 Eh/bohr
RMS Gradient             TolRMSG  ....  1.0000e-04 Eh/bohr
Max. Displacement        TolMAXD  ....  4.0000e-03 bohr
RMS Displacement         TolRMSD  ....  2.0000e-03 bohr
Strict Convergence                ....  False
------------------------------------------------------------------------------
                        ORCA OPTIMIZATION COORDINATE SETUP
------------------------------------------------------------------------------

The optimization will be done in new redundant internal coordinates
Making redundant internal coordinates   ...  (new redundants) done
Evaluating the initial hessian          ...  (Almloef) done
Evaluating the coordinates              ...  done
Calculating the B-matrix                .... done
Calculating the G-matrix                .... done
Diagonalizing the G-matrix              .... done
Imposing constraints:
 Iter   0:  RMS(Cart)=    0.0000000000 RMS(Int)=    0.0000000000
CONVERGED
Will constrain atom 0 coordinate 1 
Will constrain atom 0 coordinate 2 
Will constrain atom 1 coordinate 2 
The first mode is                       ....    1
The number of degrees of freedom        ....    6
Storing new coordinates                 .... done

    -----------------------------------------------------------------
                    Redundant Internal Coordinates


    -----------------------------------------------------------------
         Definition                    Initial Value    Approx d2E/dq
    -----------------------------------------------------------------
      1. B(H   1,C   0)                  1.0800         0.373575   
      2. B(H   2,C   0)                  1.0800         0.373575   
      3. B(H   3,C   0)                  1.0800         0.373575   
      4. A(H   2,C   0,H   3)          101.5000         0.294224 C 
      5. A(H   1,C   0,H   2)          101.5000         0.294224 C 
      6. A(H   1,C   0,H   3)          101.5000         0.294224 C 
      7. I(H   1,H   3,H   2,C   0)     71.6329         0.002702   
    -----------------------------------------------------------------

Number of atoms                         .... 4
Number of degrees of freedom            .... 7

         *************************************************************
         *                GEOMETRY OPTIMIZATION CYCLE   1            *
         *************************************************************
---------------------------------
CARTESIAN COORDINATES (ANGSTROEM)
---------------------------------
  C      0.000000    0.000000    0.000000
  H      0.965727    0.000000   -0.483499
  H     -0.482863    0.836344   -0.483499
  H     -0.482863   -0.836344   -0.483499

----------------------------
CARTESIAN COORDINATES (A.U.)
----------------------------
  NO LB      ZA    FRAG     MASS         X           Y           Z
   0 C     6.0000    0    12.011    0.000000    0.000000    0.000000
   1 H     1.0000    0     1.008    1.824959    0.000000   -0.913681
   2 H     1.0000    0     1.008   -0.912480    1.580461   -0.913681
   3 H     1.0000    0     1.008   -0.912480   -1.580461   -0.913681

--------------------------------
INTERNAL COORDINATES (ANGSTROEM)
--------------------------------
 C      0   0   0     0.000000000000     0.00000000     0.00000000
 H      1   0   0     1.080000000015     0.00000000     0.00000000
 H      1   2   0     1.079999999973   101.50000000     0.00000000
 H      1   2   3     1.079999999973   101.50000000   104.41912479

---------------------------
INTERNAL COORDINATES (A.U.)
---------------------------
 C      0   0   0     0.000000000000     0.00000000     0.00000000
 H      1   0   0     2.040904224663     0.00000000     0.00000000
 H      1   2   0     2.040904224584   101.50000000     0.00000000
 H      1   2   3     2.040904224584   101.50000000   104.41912479

---------------------
BASIS SET INFORMATION
---------------------
There are 2 groups of distinct atoms

 Group   1 Type C   : 12s6p3d1f contracted to 6s3p3d1f pattern {621111/411/111/1}
 Group   2 Type H   : 5s2p contracted to 3s2p pattern {311/11}

Atom   0C    basis set group =>   1
Atom   1H    basis set group =>   2
Atom   2H    basis set group =>   2
Atom   3H    basis set group =>   2
---------------------------------
AUXILIARY/J BASIS SET INFORMATION
---------------------------------
There are 2 groups of distinct atoms

 Group   1 Type C   : 12s5p4d2f1g contracted to 6s4p3d1f1g pattern {711111/2111/211/2/1}
 Group   2 Type H   : 5s2p1d contracted to 3s1p1d pattern {311/2/1}

Atom   0C    basis set group =>   1
Atom   1H    basis set group =>   2
Atom   2H    basis set group =>   2
Atom   3H    basis set group =>   2


           ************************************************************
           *        Program running with 18 parallel MPI-processes    *
           *              working on a common directory               *
           ************************************************************
------------------------------------------------------------------------------
                           ORCA GTO INTEGRAL CALCULATION
                           -- RI-GTO INTEGRALS CHOSEN --
------------------------------------------------------------------------------
------------------------------------------------------------------------------
                   ___                                                        
                  /   \      - P O W E R E D   B Y -                         
                 /     \                                                     
                 |  |  |   _    _      __       _____    __    __             
                 |  |  |  | |  | |    /  \     |  _  \  |  |  /  |          
                  \  \/   | |  | |   /    \    | | | |  |  | /  /          
                 / \  \   | |__| |  /  /\  \   | |_| |  |  |/  /          
                |  |  |   |  __  | /  /__\  \  |    /   |      \           
                |  |  |   | |  | | |   __   |  |    \   |  |\   \          
                \     /   | |  | | |  |  |  |  | |\  \  |  | \   \       
                 \___/    |_|  |_| |__|  |__|  |_| \__\ |__|  \__/        
                                                                              
                      - O R C A' S   B I G   F R I E N D -                    
                                      &                                       
                       - I N T E G R A L  F E E D E R -                       
                                                                              
 v1 FN, 2020, v2 2021                                                         
------------------------------------------------------------------------------


Reading SHARK input file /beegfs/scratch/ispackman/PFAS_EPR_calcs/benchmark/JChemEd_CF3_radical/CH3_radical_101.5_degrees_IN-PROGRESS/CH3_radical_101.5_degrees.SHARKINP.tmp ... ok
----------------------
SHARK INTEGRAL PACKAGE
----------------------

Number of atoms                             ...      4
Number of basis functions                   ...     64
Number of shells                            ...     28
Maximum angular momentum                    ...      3
Integral batch strategy                     ... SHARK/LIBINT Hybrid
RI-J (if used) integral strategy            ... SPLIT-RIJ (Revised 2003 algorithm where possible)
Printlevel                                  ...      1
Contraction scheme used                     ... SEGMENTED contraction
Coulomb Range Separation                    ... NOT USED
Exchange Range Separation                   ... Long Range
   Mu parameter                             ...  0.250000
   Scaling (regular/separated)              ...  0.195728  0.804272
Finite Nucleus Model                        ... NOT USED
Auxiliary Coulomb fitting basis             ... AVAILABLE
   # of basis functions in Aux-J            ...     82
   # of shells in Aux-J                     ...     30
   Maximum angular momentum in Aux-J        ...      4
Auxiliary J/K fitting basis                 ... NOT available
Auxiliary Correlation fitting basis         ... NOT available
Auxiliary 'external' fitting basis          ... NOT available
Integral threshold                          ...     2.500000e-11
Primitive cut-off                           ...     2.500000e-12
Primitive pair pre-selection threshold      ...     2.500000e-12

Calculating pre-screening integrals         ... done (  0.0 sec) Dimension = 28
Organizing shell pair data                  ... done (  0.0 sec)
Shell pair information
Total number of shell pairs                 ...       406
Shell pairs after pre-screening             ...       406
Total number of primitive shell pairs       ...       977
Primitive shell pairs kept                  ...       947
          la=0 lb=0:    120 shell pairs
          la=1 lb=0:    135 shell pairs
          la=1 lb=1:     45 shell pairs
          la=2 lb=0:     45 shell pairs
          la=2 lb=1:     27 shell pairs
          la=2 lb=2:      6 shell pairs
          la=3 lb=0:     15 shell pairs
          la=3 lb=1:      9 shell pairs
          la=3 lb=2:      3 shell pairs
          la=3 lb=3:      1 shell pairs

Calculating one electron integrals          ... done (  0.0 sec)
Calculating RI/J V-Matrix + Cholesky decomp.... done (  0.0 sec)
Calculating Nuclear repulsion               ... done (  0.0 sec) ENN=      9.768710177565 Eh

SHARK setup successfully completed in   0.3 seconds

Maximum memory used throughout the entire GTOINT-calculation: 14.0 MB


           ************************************************************
           *        Program running with 18 parallel MPI-processes    *
           *              working on a common directory               *
           ************************************************************
-------------------------------------------------------------------------------
                                 ORCA SCF
-------------------------------------------------------------------------------

------------
SCF SETTINGS
------------
Hamiltonian:
 Density Functional     Method          .... DFT(GTOs)
 Exchange Functional    Exchange        .... WB97X-D3
 Correlation Functional Correlation     .... WB97X-D3
 Gradients option       PostSCFGGA      .... off
 Hybrid DFT is turned on
   Fraction HF Exchange ScalHFX         ....  0.195728
   Scaling of DF-GGA-X  ScalDFX         ....  0.000000
   Scaling of DF-GGA-C  ScalDFC         ....  1.000000
   Scaling of DF-LDA-C  ScalLDAC        ....  1.000000
   Perturbative correction              ....  0.000000
   Density functional embedding theory  .... OFF
 Long-range corrected/Screened/Range-Separated Hybrid DFT is turned on
   Amount of maximum screened exact exchange              ....  0.804272
   Range separation parameter mu (erf(mu*r12)/r12)        ....  0.250000
 RI-approximation to the Coulomb term is turned on
   Number of AuxJ basis functions       .... 82
   RIJ-COSX (HFX calculated with COS-X)).... on


General Settings:
 Integral files         IntName         .... /beegfs/scratch/ispackman/PFAS_EPR_calcs/benchmark/JChemEd_CF3_radical/CH3_radical_101.5_degrees_IN-PROGRESS/CH3_radical_101.5_degrees
 Hartree-Fock type      HFTyp           .... UHF
 Total Charge           Charge          ....    0
 Multiplicity           Mult            ....    2
 Number of Electrons    NEL             ....    9
 Basis Dimension        Dim             ....   64
 Nuclear Repulsion      ENuc            ....      9.7687101776 Eh

Convergence Acceleration:
 DIIS                   CNVDIIS         .... on
   Start iteration      DIISMaxIt       ....    12
   Startup error        DIISStart       ....  0.200000
   # of expansion vecs  DIISMaxEq       ....     5
   Bias factor          DIISBfac        ....   1.050
   Max. coefficient     DIISMaxC        ....  10.000
 Trust-Rad. Augm. Hess. CNVTRAH         .... auto
   Auto Start mean grad. ratio tolernc. ....  1.125000
   Auto Start start iteration           ....    20
   Auto Start num. interpolation iter.  ....    10
   Max. Number of Micro iterations      ....    16
   Max. Number of Macro iterations      .... Maxiter - #DIIS iter
   Number of Davidson start vectors     ....     2
   Converg. threshold I  (grad. norm)   ....   1.000e-05
   Converg. threshold II (energy diff.) ....   1.000e-08
   Grad. Scal. Fac. for Micro threshold ....   0.100
   Minimum threshold for Micro iter.    ....   0.010
   NR start threshold (gradient norm)   ....   0.001
   Initial trust radius                 ....   0.400
   Minimum AH scaling param. (alpha)    ....   1.000
   Maximum AH scaling param. (alpha)    .... 1000.000
   Orbital update algorithm             .... Taylor
   White noise on init. David. guess    .... on
   Maximum white noise                  ....   0.010
   Quad. conv. algorithm                .... NR
 SOSCF                  CNVSOSCF        .... off
 Level Shifting         CNVShift        .... on
   Level shift para.    LevelShift      ....    0.2500
   Turn off err/grad.   ShiftErr        ....    0.0010
 Zerner damping         CNVZerner       .... off
 Static damping         CNVDamp         .... on
   Fraction old density DampFac         ....    0.7000
   Max. Damping (<1)    DampMax         ....    0.9800
   Min. Damping (>=0)   DampMin         ....    0.0000
   Turn off err/grad.   DampErr         ....    0.1000
 Fernandez-Rico         CNVRico         .... off

SCF Procedure:
 Maximum # iterations   MaxIter         ....   125
 SCF integral mode      SCFMode         .... Direct
   Integral package                     .... SHARK and LIBINT hybrid scheme
 Reset frequency        DirectResetFreq ....    20
 Integral Threshold     Thresh          ....  2.500e-11 Eh
 Primitive CutOff       TCut            ....  2.500e-12 Eh

Convergence Tolerance:
 Convergence Check Mode ConvCheckMode   .... Total+1el-Energy
 Convergence forced     ConvForced      .... 0
 Energy Change          TolE            ....  1.000e-08 Eh
 1-El. energy change                    ....  1.000e-05 Eh
 DIIS Error             TolErr          ....  5.000e-07


Diagonalization of the overlap matrix:
Smallest eigenvalue                        ... 4.126e-05
Time for diagonalization                   ...    0.002 sec
Threshold for overlap eigenvalues          ... 1.000e-08
Number of eigenvalues below threshold      ... 0
Time for construction of square roots      ...    0.016 sec
Total time needed                          ...    0.019 sec

Time for model grid setup =    0.036 sec

------------------------------
INITIAL GUESS: MODEL POTENTIAL
------------------------------
Loading Hartree-Fock densities                     ... done
Calculating cut-offs                               ... done
Initializing the effective Hamiltonian             ... done
Setting up the integral package (SHARK)            ... done
Starting the Coulomb interaction                   ... done (   0.1 sec)
Reading the grid                                   ... done
Mapping shells                                     ... done
Starting the XC term evaluation                    ... done (   0.0 sec)
  promolecular density results
     # of electrons  =      8.997908447
     EX              =     -5.936360042
     EC              =     -0.260217018
     EX+EC           =     -6.196577060
Transforming the Hamiltonian                       ... done (   0.0 sec)
Diagonalizing the Hamiltonian                      ... done (   0.0 sec)
Back transforming the eigenvectors                 ... done (   0.0 sec)
Now organizing SCF variables                       ... done
                      ------------------
                      INITIAL GUESS DONE (   0.1 sec)
                      ------------------
-------------------
DFT GRID GENERATION
-------------------

General Integration Accuracy     IntAcc      ... 4.388
Radial Grid Type                 RadialGrid  ... OptM3 with GC (2021)
Angular Grid (max. ang.)         AngularGrid ... 4 (Lebedev-302)
Angular grid pruning method      GridPruning ... 4 (adaptive)
Weight generation scheme         WeightScheme... Becke
Basis function cutoff            BFCut       ... 1.0000e-11
Integration weight cutoff        WCut        ... 1.0000e-14
Angular grids for H and He will be reduced by one unit
Partially contracted basis set               ... off
Rotationally invariant grid construction     ... off

Total number of grid points                  ...    17040
Total number of batches                      ...      268
Average number of points per batch           ...       63
Average number of grid points per atom       ...     4260
Time for grid setup =    0.099 sec

--------------------
COSX GRID GENERATION
--------------------

GRIDX 1
-------
General Integration Accuracy     IntAcc      ... 3.816
Radial Grid Type                 RadialGrid  ... OptM3 with GC (2021)
Angular Grid (max. ang.)         AngularGrid ... 1 (Lebedev-50)
Angular grid pruning method      GridPruning ... 4 (adaptive)
Weight generation scheme         WeightScheme... Becke
Basis function cutoff            BFCut       ... 1.0000e-11
Integration weight cutoff        WCut        ... 1.0000e-14
Angular grids for H and He will be reduced by one unit
Partially contracted basis set               ... on
Rotationally invariant grid construction     ... off

Total number of grid points                  ...     2148
Total number of batches                      ...       36
Average number of points per batch           ...       59
Average number of grid points per atom       ...      537
UseSFitting                                  ... on

GRIDX 2
-------
General Integration Accuracy     IntAcc      ... 4.020
Radial Grid Type                 RadialGrid  ... OptM3 with GC (2021)
Angular Grid (max. ang.)         AngularGrid ... 2 (Lebedev-110)
Angular grid pruning method      GridPruning ... 4 (adaptive)
Weight generation scheme         WeightScheme... Becke
Basis function cutoff            BFCut       ... 1.0000e-11
Integration weight cutoff        WCut        ... 1.0000e-14
Angular grids for H and He will be reduced by one unit
Partially contracted basis set               ... on
Rotationally invariant grid construction     ... off

Total number of grid points                  ...     5036
Total number of batches                      ...       80
Average number of points per batch           ...       62
Average number of grid points per atom       ...     1259
UseSFitting                                  ... on

GRIDX 3
-------
General Integration Accuracy     IntAcc      ... 4.338
Radial Grid Type                 RadialGrid  ... OptM3 with GC (2021)
Angular Grid (max. ang.)         AngularGrid ... 3 (Lebedev-194)
Angular grid pruning method      GridPruning ... 4 (adaptive)
Weight generation scheme         WeightScheme... Becke
Basis function cutoff            BFCut       ... 1.0000e-11
Integration weight cutoff        WCut        ... 1.0000e-14
Angular grids for H and He will be reduced by one unit
Partially contracted basis set               ... on
Rotationally invariant grid construction     ... off

Total number of grid points                  ...    11709
Total number of batches                      ...      185
Average number of points per batch           ...       63
Average number of grid points per atom       ...     2927
UseSFitting                                  ... on

Time for X-Grid setup             =    0.250 sec

--------------
SCF ITERATIONS
--------------
ITER       Energy         Delta-E        Max-DP      RMS-DP      [F,P]     Damp
               ***  Starting incremental Fock matrix formation  ***
  0    -39.7753090052   0.000000000000 0.06321817  0.00121536  0.0760802 0.7000
  1    -39.7889972880  -0.013688282792 0.05859691  0.00107093  0.0488613 0.7000
                               ***Turning on DIIS***
  2    -39.7967619433  -0.007764655322 0.12624233  0.00234577  0.0282616 0.0000
  3    -39.8102763482  -0.013514404916 0.03905352  0.00072819  0.0192217 0.0000
  4    -39.8118009791  -0.001524630821 0.01335023  0.00022859  0.0033211 0.0000
  5    -39.8118673491  -0.000066370026 0.01182196  0.00019423  0.0016353 0.0000
  6    -39.8118893799  -0.000022030838 0.01249712  0.00019836  0.0006254 0.0000
               *** Restarting incremental Fock matrix formation ***
                                   *** Resetting DIIS ***
  7    -39.8118990502  -0.000009670230 0.00123400  0.00001952  0.0000827 0.0000
  8    -39.8118991955  -0.000000145376 0.00073543  0.00001169  0.0000368 0.0000
  9    -39.8118992395  -0.000000043920 0.00002282  0.00000079  0.0000154 0.0000
 10    -39.8118992418  -0.000000002326 0.00000829  0.00000027  0.0000061 0.0000
                 **** Energy Check signals convergence ****

               *****************************************************
               *                     SUCCESS                       *
               *           SCF CONVERGED AFTER  11 CYCLES          *
               *****************************************************

Old exchange energy                            =     -2.173554894 Eh
New exchange energy                            =     -2.173557902 Eh
Exchange energy change after final integration =     -0.000003008 Eh
Total energy after final integration           =    -39.811902250 Eh
Final COS-X integration done in                =     0.114 sec

----------------
TOTAL SCF ENERGY
----------------

Total Energy       :          -39.81190225 Eh           -1083.33694 eV

Components:
Nuclear Repulsion  :            9.76871018 Eh             265.82012 eV
Electronic Energy  :          -49.58061243 Eh           -1349.15705 eV
One Electron Energy:          -71.78443916 Eh           -1953.35390 eV
Two Electron Energy:           22.20382673 Eh             604.19684 eV
Max COSX asymmetry :            0.00000017 Eh               0.00000 eV

Virial components:
Potential Energy   :          -79.47705846 Eh           -2162.68071 eV
Kinetic Energy     :           39.66515621 Eh            1079.34377 eV
Virial Ratio       :            2.00369962


DFT components:
N(Alpha)           :        4.999997120662 electrons
N(Beta)            :        4.000000284011 electrons
N(Total)           :        8.999997404673 electrons
E(XC)              :       -4.316686359687 Eh       
DFET-embed. en.    :        0.000000000000 Eh       

---------------
SCF CONVERGENCE
---------------

  Last Energy change         ...    1.8332e-11  Tolerance :   1.0000e-08
  Last MAX-Density change    ...    0.0000e+00  Tolerance :   1.0000e-07
  Last RMS-Density change    ...    0.0000e+00  Tolerance :   5.0000e-09
  Last DIIS Error            ...    1.2637e-06  Tolerance :   5.0000e-07

             **** THE GBW FILE WAS UPDATED (/beegfs/scratch/ispackman/PFAS_EPR_calcs/benchmark/JChemEd_CF3_radical/CH3_radical_101.5_degrees_IN-PROGRESS/CH3_radical_101.5_degrees.gbw) ****
             **** DENSITY /beegfs/scratch/ispackman/PFAS_EPR_calcs/benchmark/JChemEd_CF3_radical/CH3_radical_101.5_degrees_IN-PROGRESS/CH3_radical_101.5_degrees.scfp WAS UPDATED ****
             **** ENERGY FILE WAS UPDATED (/beegfs/scratch/ispackman/PFAS_EPR_calcs/benchmark/JChemEd_CF3_radical/CH3_radical_101.5_degrees_IN-PROGRESS/CH3_radical_101.5_degrees.en.tmp) ****
----------------------
UHF SPIN CONTAMINATION
----------------------

Warning: in a DFT calculation there is little theoretical justification to 
         calculate <S**2> as in Hartree-Fock theory. We will do it anyways
         but you should keep in mind that the values have only limited relevance

Expectation value of <S**2>     :     0.752989
Ideal value S*(S+1) for S=0.5   :     0.750000
Deviation                       :     0.002989

             **** THE GBW FILE WAS UPDATED (/beegfs/scratch/ispackman/PFAS_EPR_calcs/benchmark/JChemEd_CF3_radical/CH3_radical_101.5_degrees_IN-PROGRESS/CH3_radical_101.5_degrees.gbw) ****
             **** DENSITY /beegfs/scratch/ispackman/PFAS_EPR_calcs/benchmark/JChemEd_CF3_radical/CH3_radical_101.5_degrees_IN-PROGRESS/CH3_radical_101.5_degrees.scfp WAS UPDATED ****
----------------
ORBITAL ENERGIES
----------------
                 SPIN UP ORBITALS
  NO   OCC          E(Eh)            E(eV) 
   0   1.0000     -10.294142      -280.1178 
   1   1.0000      -0.818690       -22.2777 
   2   1.0000      -0.496826       -13.5193 
   3   1.0000      -0.496791       -13.5184 
   4   1.0000      -0.382376       -10.4050 
   5   0.0000       0.075373         2.0510 
   6   0.0000       0.161591         4.3971 
   7   0.0000       0.161598         4.3973 
   8   0.0000       0.178947         4.8694 
   9   0.0000       0.194358         5.2887 
  10   0.0000       0.194362         5.2889 
  11   0.0000       0.232573         6.3286 
  12   0.0000       0.253261         6.8916 
  13   0.0000       0.253264         6.8917 
  14   0.0000       0.315705         8.5908 
  15   0.0000       0.352909         9.6032 
  16   0.0000       0.352919         9.6034 
  17   0.0000       0.358383         9.7521 
  18   0.0000       0.378714        10.3053 
  19   0.0000       0.383789        10.4434 
  20   0.0000       0.383793        10.4435 
  21   0.0000       0.399536        10.8719 
  22   0.0000       0.399544        10.8722 
  23   0.0000       0.533501        14.5173 
  24   0.0000       0.559932        15.2365 
  25   0.0000       0.559940        15.2367 
  26   0.0000       0.620192        16.8763 
  27   0.0000       0.783687        21.3252 
  28   0.0000       0.790843        21.5199 
  29   0.0000       0.790849        21.5201 
  30   0.0000       0.869704        23.6658 
  31   0.0000       0.869714        23.6661 
  32   0.0000       0.977223        26.5916 
  33   0.0000       1.159772        31.5590 
  34   0.0000       1.159796        31.5597 
  35   0.0000       1.646696        44.8089 
  36   0.0000       1.741458        47.3875 
  37   0.0000       1.741550        47.3900 
  38   0.0000       1.759189        47.8700 
  39   0.0000       1.803505        49.0759 
  40   0.0000       1.937314        52.7170 
  41   0.0000       1.937351        52.7180 
  42   0.0000       2.201357        59.9020 
  43   0.0000       2.235779        60.8386 
  44   0.0000       2.235868        60.8411 
  45   0.0000       2.387428        64.9652 
  46   0.0000       2.637099        71.7591 
  47   0.0000       2.637101        71.7592 
  48   0.0000       2.722845        74.0924 
  49   0.0000       2.722957        74.0954 
  50   0.0000       2.826562        76.9147 
  51   0.0000       3.054184        83.1086 
  52   0.0000       3.156177        85.8840 
  53   0.0000       3.156252        85.8860 
  54   0.0000       3.301947        89.8505 
  55   0.0000       3.301984        89.8516 
  56   0.0000       3.323350        90.4330 
  57   0.0000       3.391785        92.2952 
  58   0.0000       3.713325       101.0447 
  59   0.0000       3.713382       101.0463 
  60   0.0000       4.395692       119.6129 
  61   0.0000       4.457632       121.2983 
  62   0.0000       4.457907       121.3058 
  63   0.0000      22.181145       603.5796 

                 SPIN DOWN ORBITALS
  NO   OCC          E(Eh)            E(eV) 
   0   1.0000     -10.282671      -279.8057 
   1   1.0000      -0.782490       -21.2926 
   2   1.0000      -0.481530       -13.1031 
   3   1.0000      -0.481518       -13.1028 
   4   0.0000      -0.030324        -0.8252 
   5   0.0000       0.083909         2.2833 
   6   0.0000       0.166573         4.5327 
   7   0.0000       0.166579         4.5328 
   8   0.0000       0.200701         5.4613 
   9   0.0000       0.200710         5.4616 
  10   0.0000       0.215079         5.8526 
  11   0.0000       0.248119         6.7517 
  12   0.0000       0.257432         7.0051 
  13   0.0000       0.257433         7.0051 
  14   0.0000       0.325603         8.8601 
  15   0.0000       0.367943        10.0122 
  16   0.0000       0.367949        10.0124 
  17   0.0000       0.370957        10.0942 
  18   0.0000       0.378586        10.3019 
  19   0.0000       0.391151        10.6438 
  20   0.0000       0.391153        10.6438 
  21   0.0000       0.408482        11.1153 
  22   0.0000       0.408485        11.1154 
  23   0.0000       0.563805        15.3419 
  24   0.0000       0.563816        15.3422 
  25   0.0000       0.569704        15.5024 
  26   0.0000       0.629233        17.1223 
  27   0.0000       0.791628        21.5413 
  28   0.0000       0.802945        21.8493 
  29   0.0000       0.802947        21.8493 
  30   0.0000       0.890895        24.2425 
  31   0.0000       0.890911        24.2429 
  32   0.0000       0.995817        27.0975 
  33   0.0000       1.170079        31.8395 
  34   0.0000       1.170106        31.8402 
  35   0.0000       1.715705        46.6867 
  36   0.0000       1.750655        47.6378 
  37   0.0000       1.750770        47.6409 
  38   0.0000       1.760445        47.9041 
  39   0.0000       1.817906        49.4677 
  40   0.0000       1.953227        53.1500 
  41   0.0000       1.953290        53.1517 
  42   0.0000       2.205081        60.0033 
  43   0.0000       2.246886        61.1409 
  44   0.0000       2.246952        61.1427 
  45   0.0000       2.402384        65.3722 
  46   0.0000       2.642234        71.8988 
  47   0.0000       2.642242        71.8991 
  48   0.0000       2.747942        74.7753 
  49   0.0000       2.747992        74.7767 
  50   0.0000       2.849724        77.5449 
  51   0.0000       3.100560        84.3705 
  52   0.0000       3.203902        87.1826 
  53   0.0000       3.203951        87.1839 
  54   0.0000       3.338437        90.8435 
  55   0.0000       3.338515        90.8456 
  56   0.0000       3.344213        91.0007 
  57   0.0000       3.422454        93.1297 
  58   0.0000       3.757782       102.2544 
  59   0.0000       3.757802       102.2550 
  60   0.0000       4.420259       120.2814 
  61   0.0000       4.479924       121.9049 
  62   0.0000       4.480209       121.9127 
  63   0.0000      22.201200       604.1254 

                    ********************************
                    * MULLIKEN POPULATION ANALYSIS *
                    ********************************

--------------------------------------------
MULLIKEN ATOMIC CHARGES AND SPIN POPULATIONS
--------------------------------------------
   0 C :   -0.692779    0.883786
   1 H :    0.230615    0.038708
   2 H :    0.231082    0.038753
   3 H :    0.231083    0.038753
Sum of atomic charges         :   -0.0000000
Sum of atomic spin populations:    1.0000000

-----------------------------------------------------
MULLIKEN REDUCED ORBITAL CHARGES AND SPIN POPULATIONS
-----------------------------------------------------
CHARGE
  0 C s       :     3.327215  s :     3.327215
      pz      :     0.951915  p :     3.314284
      px      :     1.181140
      py      :     1.181229
      dz2     :     0.000293  d :     0.050615
      dxz     :     0.017028
      dyz     :     0.017045
      dx2y2   :     0.008115
      dxy     :     0.008134
      f0      :     0.000375  f :     0.000665
      f+1     :     0.000015
      f-1     :     0.000015
      f+2     :    -0.000079
      f-2     :    -0.000073
      f+3     :     0.000413
      f-3     :     0.000000
  1 H s       :     0.725412  s :     0.725412
      pz      :     0.022507  p :     0.043973
      px      :     0.017206
      py      :     0.004259
  2 H s       :     0.725069  s :     0.725069
      pz      :     0.022428  p :     0.043849
      px      :     0.007487
      py      :     0.013935
  3 H s       :     0.725068  s :     0.725068
      pz      :     0.022428  p :     0.043850
      px      :     0.007487
      py      :     0.013935

SPIN
  0 C s       :     0.022474  s :     0.022474
      pz      :     0.863835  p :     0.872114
      px      :     0.004127
      py      :     0.004151
      dz2     :    -0.000985  d :    -0.010162
      dxz     :    -0.004249
      dyz     :    -0.004245
      dx2y2   :    -0.000347
      dxy     :    -0.000336
      f0      :    -0.000458  f :    -0.000641
      f+1     :    -0.000012
      f-1     :    -0.000012
      f+2     :    -0.000018
      f-2     :    -0.000016
      f+3     :    -0.000123
      f-3     :    -0.000000
  1 H s       :     0.016382  s :     0.016382
      pz      :     0.019515  p :     0.022326
      px      :    -0.000093
      py      :     0.002905
  2 H s       :     0.016492  s :     0.016492
      pz      :     0.019455  p :     0.022261
      px      :     0.002151
      py      :     0.000656
  3 H s       :     0.016492  s :     0.016492
      pz      :     0.019455  p :     0.022261
      px      :     0.002151
      py      :     0.000656


                     *******************************
                     * LOEWDIN POPULATION ANALYSIS *
                     *******************************

-------------------------------------------
LOEWDIN ATOMIC CHARGES AND SPIN POPULATIONS
-------------------------------------------
   0 C :    0.055956    0.835401
   1 H :   -0.018682    0.054865
   2 H :   -0.018637    0.054867
   3 H :   -0.018637    0.054867

----------------------------------------------------
LOEWDIN REDUCED ORBITAL CHARGES AND SPIN POPULATIONS
----------------------------------------------------
CHARGE
  0 C s       :     2.907622  s :     2.907622
      pz      :     0.768358  p :     2.904591
      px      :     1.068112
      py      :     1.068121
      dz2     :     0.004392  d :     0.120694
      dxz     :     0.027984
      dyz     :     0.027988
      dx2y2   :     0.030164
      dxy     :     0.030166
      f0      :     0.001456  f :     0.011137
      f+1     :     0.000026
      f-1     :     0.000026
      f+2     :     0.003586
      f-2     :     0.003588
      f+3     :     0.002454
      f-3     :     0.000000
  1 H s       :     0.751566  s :     0.751566
      pz      :     0.070414  p :     0.267116
      px      :     0.121406
      py      :     0.075297
  2 H s       :     0.751538  s :     0.751538
      pz      :     0.070396  p :     0.267098
      px      :     0.086816
      py      :     0.109887
  3 H s       :     0.751538  s :     0.751538
      pz      :     0.070396  p :     0.267098
      px      :     0.086816
      py      :     0.109887

SPIN
  0 C s       :     0.107648  s :     0.107648
      pz      :     0.698396  p :     0.737618
      px      :     0.019627
      py      :     0.019596
      dz2     :     0.000917  d :    -0.009637
      dxz     :    -0.003662
      dyz     :    -0.003664
      dx2y2   :    -0.001621
      dxy     :    -0.001607
      f0      :    -0.000204  f :    -0.000227
      f+1     :     0.000026
      f-1     :     0.000026
      f+2     :    -0.000191
      f-2     :    -0.000189
      f+3     :     0.000306
      f-3     :    -0.000000
  1 H s       :    -0.001645  s :    -0.001645
      pz      :     0.054398  p :     0.056509
      px      :     0.003007
      py      :    -0.000895
  2 H s       :    -0.001654  s :    -0.001654
      pz      :     0.054403  p :     0.056521
      px      :     0.000077
      py      :     0.002041
  3 H s       :    -0.001654  s :    -0.001654
      pz      :     0.054403  p :     0.056521
      px      :     0.000077
      py      :     0.002041


                      *****************************
                      * MAYER POPULATION ANALYSIS *
                      *****************************

  NA   - Mulliken gross atomic population
  ZA   - Total nuclear charge
  QA   - Mulliken gross atomic charge
  VA   - Mayer's total valence
  BVA  - Mayer's bonded valence
  FA   - Mayer's free valence

  ATOM       NA         ZA         QA         VA         BVA        FA
  0 C      6.6928     6.0000    -0.6928     3.8200     3.0366     0.7834
  1 H      0.7694     1.0000     0.2306     1.0107     1.0093     0.0014
  2 H      0.7689     1.0000     0.2311     1.0102     1.0088     0.0014
  3 H      0.7689     1.0000     0.2311     1.0102     1.0088     0.0014

  Mayer bond orders larger than 0.100000
B(  0-C ,  1-H ) :   1.0124 B(  0-C ,  2-H ) :   1.0121 B(  0-C ,  3-H ) :   1.0121 


-------
TIMINGS
-------

Total SCF time: 0 days 0 hours 0 min 8 sec 

Total time                  ....       8.121 sec
Sum of individual times     ....       7.375 sec  ( 90.8%)

Fock matrix formation       ....       6.224 sec  ( 76.6%)
  Split-RI-J                ....       0.849 sec  ( 13.6% of F)
  Chain of spheres X        ....       1.361 sec  ( 21.9% of F)
  XC integration            ....       1.294 sec  ( 20.8% of F)
    Basis function eval.    ....       0.052 sec  (  4.0% of XC)
    Density eval.           ....       0.050 sec  (  3.9% of XC)
    XC-Functional eval.     ....       0.052 sec  (  4.0% of XC)
    XC-Potential eval.      ....       0.070 sec  (  5.4% of XC)
Diagonalization             ....       0.158 sec  (  2.0%)
Density matrix formation    ....       0.010 sec  (  0.1%)
Population analysis         ....       0.155 sec  (  1.9%)
Initial guess               ....       0.106 sec  (  1.3%)
Orbital Transformation      ....       0.000 sec  (  0.0%)
Orbital Orthonormalization  ....       0.000 sec  (  0.0%)
DIIS solution               ....       0.337 sec  (  4.1%)
Grid generation             ....       0.385 sec  (  4.7%)

Maximum memory used throughout the entire SCF-calculation: 58.5 MB


-------------------------------------------------------------------------------
                          DFT DISPERSION CORRECTION                            
                                                                               
                              DFTD3 V3.1  Rev 1                                
                              USING zero damping                               
-------------------------------------------------------------------------------
The omegaB97X-D3 functional is recognized. Fit by Chai et al.
Active option DFTDOPT                   ...         3   

molecular C6(AA) [au] = 106.958606 


            DFT-D V3
 parameters
 s6 scaling factor         :     1.0000 
 rs6 scaling factor        :     1.2810 
 s8 scaling factor         :     1.0000 
 rs8 scaling factor        :     1.0940 
 Damping factor alpha6     :    14.0000 
 Damping factor alpha8     :    16.0000 
 ad hoc parameters k1-k3   :    16.0000     1.3333    -4.0000 

 Edisp/kcal,au: -0.004795871022  -0.000007642706 
 E6   /kcal   :  -0.000746082 
 E8   /kcal   :  -0.004049789 
 % E8         :  84.443233558 

-------------------------   ----------------
Dispersion correction           -0.000007643
-------------------------   ----------------


-------------------------   --------------------
FINAL SINGLE POINT ENERGY       -39.811909892828
-------------------------   --------------------



           ************************************************************
           *        Program running with 18 parallel MPI-processes    *
           *              working on a common directory               *
           ************************************************************
------------------------------------------------------------------------------
                         ORCA SCF GRADIENT CALCULATION
------------------------------------------------------------------------------

 ... reading COSX grid (gridx3)
Gradient of the Kohn-Sham DFT energy:
Kohn-Sham wavefunction type      ... UKS
Hartree-Fock exchange scaling    ...    0.196
Number of operators              ...    2
Number of atoms                  ...    4
Basis set dimensions             ...   64
Integral neglect threshold       ... 2.5e-11
Integral primitive cutoff        ... 2.5e-12
SHARK Integral package           ... ON

Nuc. rep. gradient       (SHARK) ... done (  0.0 sec)
HCore & Overlap gradient (SHARK) ... done (  0.0 sec)
RI-J gradient            (SHARK) ... done (  0.1 sec)
COSX-gradient                    ... done (  0.1 sec)
Exchange-correlation gradient    ... done
Dispersion correction            ... done

------------------
CARTESIAN GRADIENT
------------------

WARNING: THERE ARE 3 CONSTRAINED CARTESIAN COORDINATES
   1   C   :   -0.000053760    0.000000032    0.061012767
   2   H   :   -0.022415783    0.000000016   -0.020383267
   3   H   :    0.011189777   -0.019396644   -0.020319809
   4   H   :    0.011189766    0.019396656   -0.020319788

Difference to translation invariance:
           :   -0.0000899988    0.0000000595   -0.0000100974

Difference to rotation invariance:
           :   -0.0000000083    0.0001489380    0.0000000021

Norm of the cartesian gradient     ...    0.0804311877
RMS gradient                       ...    0.0232184839
MAX gradient                       ...    0.0610127666

-------
TIMINGS
-------

Total SCF gradient time            ...        0.635 sec

One electron gradient       ....       0.008 sec  (  1.2%)
RI-J Coulomb gradient       ....       0.123 sec  ( 19.4%)
COSX gradient               ....       0.123 sec  ( 19.3%)
XC gradient                 ....       0.073 sec  ( 11.5%)

Maximum memory used throughout the entire SCFGRAD-calculation: 33.6 MB
------------------------------------------------------------------------------
                         ORCA GEOMETRY RELAXATION STEP
------------------------------------------------------------------------------

Reading the OPT-File                    .... done
Getting information on internals        .... done
Copying old internal coords+grads       .... done
Making the new internal coordinates     .... (new redundants).... done
Validating the new internal coordinates .... (new redundants).... done
Calculating the B-matrix                .... done
Calculating the G,G- and P matrices     .... done
Transforming gradient to internals      .... done
Projecting the internal gradient        .... done
Number of atoms                         ....   4
Number of internal coordinates          ....   7
Current Energy                          ....   -39.811909893 Eh
Current gradient norm                   ....     0.080431188 Eh/bohr
Maximum allowed component of the step   ....  0.300
Current trust radius                    ....  0.300
Evaluating the initial hessian          ....  (Almloef) done
Projecting the Hessian                  .... done
Forming the augmented Hessian           .... done
Diagonalizing the augmented Hessian     .... done
Last element of RFO vector              ....  0.998726083
Lowest eigenvalues of augmented Hessian:
 -0.000956069  0.373574723  0.373574723  0.374530792 1000.000000000
Length of the computed step             ....  0.050524356
The final length of the internal step   ....  0.050524356
Converting the step to cartesian space:
 Initial RMS(Int)=    0.0190964115
Transforming coordinates:
 Iter   0:  RMS(Cart)=    0.0134443189 RMS(Int)=    0.0190964115
 Iter   1:  RMS(Cart)=    0.0000000001 RMS(Int)=    0.0000000001
Imposing constraints:
 Iter   0:  RMS(Cart)=    0.0000000002 RMS(Int)=    0.0000000004
CONVERGED
done
Storing new coordinates                 .... done

                                .--------------------.
          ----------------------|Geometry convergence|-------------------------
          Item                value                   Tolerance       Converged
          ---------------------------------------------------------------------
          RMS gradient        0.0071521941            0.0001000000      NO
          MAX gradient        0.0109331085            0.0003000000      NO
          RMS step            0.0190964115            0.0020000000      NO
          MAX step            0.0291914810            0.0040000000      NO
          ........................................................
          Max(Bonds)      0.0154      Max(Angles)    0.00
          Max(Dihed)        0.00      Max(Improp)    0.00
          ---------------------------------------------------------------------

The optimization has not yet converged - more geometry cycles are needed


    ---------------------------------------------------------------------------
                         Redundant Internal Coordinates
                            (Angstroem and degrees)

        Definition                    Value    dE/dq     Step     New-Value
    ----------------------------------------------------------------------------
     1. B(H   1,C   0)                1.0800 -0.010909  0.0154    1.0954   
     2. B(H   2,C   0)                1.0800 -0.010933  0.0154    1.0954   
     3. B(H   3,C   0)                1.0800 -0.010933  0.0154    1.0954   
     4. A(H   2,C   0,H   3)          101.50 -0.039576    0.00    101.50 C 
     5. A(H   1,C   0,H   2)          101.50 -0.017343    0.00    101.50 C 
     6. A(H   1,C   0,H   3)          101.50 -0.017343    0.00    101.50 C 
     7. I(H   1,H   3,H   2,C   0)     71.63  0.036344    0.00     71.63   
    ----------------------------------------------------------------------------

         *************************************************************
         *                GEOMETRY OPTIMIZATION CYCLE   2            *
         *************************************************************
---------------------------------
CARTESIAN COORDINATES (ANGSTROEM)
---------------------------------
  C      0.000010   -0.000000    0.005183
  H      0.979516   -0.000000   -0.485224
  H     -0.489763    0.848306   -0.485229
  H     -0.489763   -0.848306   -0.485229

----------------------------
CARTESIAN COORDINATES (A.U.)
----------------------------
  NO LB      ZA    FRAG     MASS         X           Y           Z
   0 C     6.0000    0    12.011    0.000019   -0.000000    0.009794
   1 H     1.0000    0     1.008    1.851018   -0.000000   -0.916940
   2 H     1.0000    0     1.008   -0.925518    1.603067   -0.916949
   3 H     1.0000    0     1.008   -0.925518   -1.603067   -0.916949

--------------------------------
INTERNAL COORDINATES (ANGSTROEM)
--------------------------------
 C      0   0   0     0.000000000000     0.00000000     0.00000000
 H      1   0   0     1.095413764615     0.00000000     0.00000000
 H      1   2   0     1.095447466400   101.49999998     0.00000000
 H      1   2   3     1.095447439369   101.49999998   104.41912474

---------------------------
INTERNAL COORDINATES (A.U.)
---------------------------
 C      0   0   0     0.000000000000     0.00000000     0.00000000
 H      1   0   0     2.070032018450     0.00000000     0.00000000
 H      1   2   0     2.070095705594   101.49999998     0.00000000
 H      1   2   3     2.070095654512   101.49999998   104.41912474



           ************************************************************
           *        Program running with 18 parallel MPI-processes    *
           *              working on a common directory               *
           ************************************************************
------------------------------------------------------------------------------
                   ___                                                        
                  /   \      - P O W E R E D   B Y -                         
                 /     \                                                     
                 |  |  |   _    _      __       _____    __    __             
                 |  |  |  | |  | |    /  \     |  _  \  |  |  /  |          
                  \  \/   | |  | |   /    \    | | | |  |  | /  /          
                 / \  \   | |__| |  /  /\  \   | |_| |  |  |/  /          
                |  |  |   |  __  | /  /__\  \  |    /   |      \           
                |  |  |   | |  | | |   __   |  |    \   |  |\   \          
                \     /   | |  | | |  |  |  |  | |\  \  |  | \   \       
                 \___/    |_|  |_| |__|  |__|  |_| \__\ |__|  \__/        
                                                                              
                      - O R C A' S   B I G   F R I E N D -                    
                                      &                                       
                       - I N T E G R A L  F E E D E R -                       
                                                                              
 v1 FN, 2020, v2 2021                                                         
------------------------------------------------------------------------------


Reading SHARK input file /beegfs/scratch/ispackman/PFAS_EPR_calcs/benchmark/JChemEd_CF3_radical/CH3_radical_101.5_degrees_IN-PROGRESS/CH3_radical_101.5_degrees.SHARKINP.tmp ... ok
----------------------
SHARK INTEGRAL PACKAGE
----------------------

Number of atoms                             ...      4
Number of basis functions                   ...     64
Number of shells                            ...     28
Maximum angular momentum                    ...      3
Integral batch strategy                     ... SHARK/LIBINT Hybrid
RI-J (if used) integral strategy            ... SPLIT-RIJ (Revised 2003 algorithm where possible)
Printlevel                                  ...      1
Contraction scheme used                     ... SEGMENTED contraction
Coulomb Range Separation                    ... NOT USED
Exchange Range Separation                   ... Long Range
   Mu parameter                             ...  0.250000
   Scaling (regular/separated)              ...  0.195728  0.804272
Finite Nucleus Model                        ... NOT USED
Auxiliary Coulomb fitting basis             ... AVAILABLE
   # of basis functions in Aux-J            ...     82
   # of shells in Aux-J                     ...     30
   Maximum angular momentum in Aux-J        ...      4
Auxiliary J/K fitting basis                 ... NOT available
Auxiliary Correlation fitting basis         ... NOT available
Auxiliary 'external' fitting basis          ... NOT available
Integral threshold                          ...     2.500000e-11
Primitive cut-off                           ...     2.500000e-12
Primitive pair pre-selection threshold      ...     2.500000e-12

Calculating pre-screening integrals         ... done (  0.0 sec) Dimension = 28
Organizing shell pair data                  ... done (  0.0 sec)
Shell pair information
Total number of shell pairs                 ...       406
Shell pairs after pre-screening             ...       406
Total number of primitive shell pairs       ...       977
Primitive shell pairs kept                  ...       947
          la=0 lb=0:    120 shell pairs
          la=1 lb=0:    135 shell pairs
          la=1 lb=1:     45 shell pairs
          la=2 lb=0:     45 shell pairs
          la=2 lb=1:     27 shell pairs
          la=2 lb=2:      6 shell pairs
          la=3 lb=0:     15 shell pairs
          la=3 lb=1:      9 shell pairs
          la=3 lb=2:      3 shell pairs
          la=3 lb=3:      1 shell pairs

Calculating one electron integrals          ... done (  0.0 sec)
Calculating RI/J V-Matrix + Cholesky decomp.... done (  0.0 sec)
Calculating Nuclear repulsion               ... done (  0.0 sec) ENN=      9.631055435140 Eh

SHARK setup successfully completed in   0.3 seconds

Maximum memory used throughout the entire GTOINT-calculation: 14.0 MB


           ************************************************************
           *        Program running with 18 parallel MPI-processes    *
           *              working on a common directory               *
           ************************************************************

Diagonalization of the overlap matrix:
Smallest eigenvalue                        ... 4.604e-05
Time for diagonalization                   ...    0.002 sec
Threshold for overlap eigenvalues          ... 1.000e-08
Number of eigenvalues below threshold      ... 0
Time for construction of square roots      ...    0.016 sec
Total time needed                          ...    0.018 sec

-------------------
DFT GRID GENERATION
-------------------

General Integration Accuracy     IntAcc      ... 4.388
Radial Grid Type                 RadialGrid  ... OptM3 with GC (2021)
Angular Grid (max. ang.)         AngularGrid ... 4 (Lebedev-302)
Angular grid pruning method      GridPruning ... 4 (adaptive)
Weight generation scheme         WeightScheme... Becke
Basis function cutoff            BFCut       ... 1.0000e-11
Integration weight cutoff        WCut        ... 1.0000e-14
Angular grids for H and He will be reduced by one unit
Partially contracted basis set               ... off
Rotationally invariant grid construction     ... off

Total number of grid points                  ...    17040
Total number of batches                      ...      269
Average number of points per batch           ...       63
Average number of grid points per atom       ...     4260
Time for grid setup =    0.088 sec

--------------------
COSX GRID GENERATION
--------------------

GRIDX 1
-------
General Integration Accuracy     IntAcc      ... 3.816
Radial Grid Type                 RadialGrid  ... OptM3 with GC (2021)
Angular Grid (max. ang.)         AngularGrid ... 1 (Lebedev-50)
Angular grid pruning method      GridPruning ... 4 (adaptive)
Weight generation scheme         WeightScheme... Becke
Basis function cutoff            BFCut       ... 1.0000e-11
Integration weight cutoff        WCut        ... 1.0000e-14
Angular grids for H and He will be reduced by one unit
Partially contracted basis set               ... on
Rotationally invariant grid construction     ... off

Total number of grid points                  ...     2150
Total number of batches                      ...       36
Average number of points per batch           ...       59
Average number of grid points per atom       ...      538
UseSFitting                                  ... on

GRIDX 2
-------
General Integration Accuracy     IntAcc      ... 4.020
Radial Grid Type                 RadialGrid  ... OptM3 with GC (2021)
Angular Grid (max. ang.)         AngularGrid ... 2 (Lebedev-110)
Angular grid pruning method      GridPruning ... 4 (adaptive)
Weight generation scheme         WeightScheme... Becke
Basis function cutoff            BFCut       ... 1.0000e-11
Integration weight cutoff        WCut        ... 1.0000e-14
Angular grids for H and He will be reduced by one unit
Partially contracted basis set               ... on
Rotationally invariant grid construction     ... off

Total number of grid points                  ...     5040
Total number of batches                      ...       81
Average number of points per batch           ...       62
Average number of grid points per atom       ...     1260
UseSFitting                                  ... on

GRIDX 3
-------
General Integration Accuracy     IntAcc      ... 4.338
Radial Grid Type                 RadialGrid  ... OptM3 with GC (2021)
Angular Grid (max. ang.)         AngularGrid ... 3 (Lebedev-194)
Angular grid pruning method      GridPruning ... 4 (adaptive)
Weight generation scheme         WeightScheme... Becke
Basis function cutoff            BFCut       ... 1.0000e-11
Integration weight cutoff        WCut        ... 1.0000e-14
Angular grids for H and He will be reduced by one unit
Partially contracted basis set               ... on
Rotationally invariant grid construction     ... off

Total number of grid points                  ...    11714
Total number of batches                      ...      185
Average number of points per batch           ...       63
Average number of grid points per atom       ...     2928
UseSFitting                                  ... on

Time for X-Grid setup             =    0.260 sec

--------------
SCF ITERATIONS
--------------
ITER       Energy         Delta-E        Max-DP      RMS-DP      [F,P]     Damp
               ***  Starting incremental Fock matrix formation  ***
  0    -39.8122489294   0.000000000000 0.01087612  0.00018357  0.0037788 0.7000
  1    -39.8122931692  -0.000044239807 0.00954371  0.00016090  0.0026472 0.7000
                               ***Turning on DIIS***
  2    -39.8123227643  -0.000029595137 0.02474757  0.00041684  0.0019296 0.0000
  3    -39.8123877606  -0.000064996265 0.00515139  0.00008910  0.0006614 0.0000
               *** Restarting incremental Fock matrix formation ***
                                   *** Resetting DIIS ***
  4    -39.8123908104  -0.000003049801 0.00049417  0.00001562  0.0003138 0.0000
  5    -39.8123913145  -0.000000504098 0.00042096  0.00000820  0.0001874 0.0000
  6    -39.8123915228  -0.000000208303 0.00011481  0.00000358  0.0000392 0.0000
  7    -39.8123915406  -0.000000017823 0.00004907  0.00000120  0.0000099 0.0000
                 **** Energy Check signals convergence ****

               *****************************************************
               *                     SUCCESS                       *
               *           SCF CONVERGED AFTER   8 CYCLES          *
               *****************************************************

Old exchange energy                            =     -2.169385653 Eh
New exchange energy                            =     -2.169388825 Eh
Exchange energy change after final integration =     -0.000003172 Eh
Total energy after final integration           =    -39.812394714 Eh
Final COS-X integration done in                =     0.122 sec
Total Energy       :          -39.81239471 Eh           -1083.35034 eV
  Last Energy change         ...   -1.1386e-09  Tolerance :   1.0000e-08
  Last MAX-Density change    ...    0.0000e+00  Tolerance :   1.0000e-07
             **** THE GBW FILE WAS UPDATED (/beegfs/scratch/ispackman/PFAS_EPR_calcs/benchmark/JChemEd_CF3_radical/CH3_radical_101.5_degrees_IN-PROGRESS/CH3_radical_101.5_degrees.gbw) ****
             **** DENSITY /beegfs/scratch/ispackman/PFAS_EPR_calcs/benchmark/JChemEd_CF3_radical/CH3_radical_101.5_degrees_IN-PROGRESS/CH3_radical_101.5_degrees.scfp WAS UPDATED ****
             **** ENERGY FILE WAS UPDATED (/beegfs/scratch/ispackman/PFAS_EPR_calcs/benchmark/JChemEd_CF3_radical/CH3_radical_101.5_degrees_IN-PROGRESS/CH3_radical_101.5_degrees.en.tmp) ****
----------------------
UHF SPIN CONTAMINATION
----------------------

Warning: in a DFT calculation there is little theoretical justification to 
         calculate <S**2> as in Hartree-Fock theory. We will do it anyways
         but you should keep in mind that the values have only limited relevance

Expectation value of <S**2>     :     0.753082
Ideal value S*(S+1) for S=0.5   :     0.750000
Deviation                       :     0.003082

             **** THE GBW FILE WAS UPDATED (/beegfs/scratch/ispackman/PFAS_EPR_calcs/benchmark/JChemEd_CF3_radical/CH3_radical_101.5_degrees_IN-PROGRESS/CH3_radical_101.5_degrees.gbw) ****
             **** DENSITY /beegfs/scratch/ispackman/PFAS_EPR_calcs/benchmark/JChemEd_CF3_radical/CH3_radical_101.5_degrees_IN-PROGRESS/CH3_radical_101.5_degrees.scfp WAS UPDATED ****
Total SCF time: 0 days 0 hours 0 min 5 sec 

Maximum memory used throughout the entire SCF-calculation: 58.5 MB


-------------------------------------------------------------------------------
                          DFT DISPERSION CORRECTION                            
                                                                               
                              DFTD3 V3.1  Rev 1                                
                              USING zero damping                               
-------------------------------------------------------------------------------
-------------------------   ----------------
Dispersion correction           -0.000008563
-------------------------   ----------------


-------------------------   --------------------
FINAL SINGLE POINT ENERGY       -39.812403276917
-------------------------   --------------------



           ************************************************************
           *        Program running with 18 parallel MPI-processes    *
           *              working on a common directory               *
           ************************************************************
------------------------------------------------------------------------------
                         ORCA SCF GRADIENT CALCULATION
------------------------------------------------------------------------------

 ... reading COSX grid (gridx3)
Gradient of the Kohn-Sham DFT energy:
Kohn-Sham wavefunction type      ... UKS
Hartree-Fock exchange scaling    ...    0.196
Number of operators              ...    2
Number of atoms                  ...    4
Basis set dimensions             ...   64
Integral neglect threshold       ... 2.5e-11
Integral primitive cutoff        ... 2.5e-12
SHARK Integral package           ... ON

Nuc. rep. gradient       (SHARK) ... done (  0.0 sec)
HCore & Overlap gradient (SHARK) ... done (  0.0 sec)
RI-J gradient            (SHARK) ... done (  0.1 sec)
COSX-gradient                    ... done (  0.1 sec)
Exchange-correlation gradient    ... done
Dispersion correction            ... done

------------------
CARTESIAN GRADIENT
------------------

WARNING: THERE ARE 3 CONSTRAINED CARTESIAN COORDINATES
   1   C   :   -0.000044574   -0.000000020    0.072450246
   2   H   :   -0.012664051   -0.000000001   -0.024189497
   3   H   :    0.006307829   -0.010940695   -0.024138289
   4   H   :    0.006307834    0.010940711   -0.024138260

Difference to translation invariance:
           :   -0.0000929609   -0.0000000051   -0.0000158005

Difference to rotation invariance:
           :   -0.0000000346    0.0001367922   -0.0000000071

Norm of the cartesian gradient     ...    0.0864802763
RMS gradient                       ...    0.0249647054
MAX gradient                       ...    0.0724502463

-------
TIMINGS
-------

Total SCF gradient time            ...        0.637 sec

One electron gradient       ....       0.008 sec  (  1.2%)
RI-J Coulomb gradient       ....       0.136 sec  ( 21.3%)
COSX gradient               ....       0.129 sec  ( 20.2%)
XC gradient                 ....       0.070 sec  ( 11.0%)

Maximum memory used throughout the entire SCFGRAD-calculation: 33.6 MB
------------------------------------------------------------------------------
                         ORCA GEOMETRY RELAXATION STEP
------------------------------------------------------------------------------

Reading the OPT-File                    .... done
Getting information on internals        .... done
Copying old internal coords+grads       .... done
Making the new internal coordinates     .... (new redundants).... done
Validating the new internal coordinates .... (new redundants).... done
Calculating the B-matrix                .... done
Calculating the G,G- and P matrices     .... done
Transforming gradient to internals      .... done
Projecting the internal gradient        .... done
Number of atoms                         ....   4
Number of internal coordinates          ....   7
Current Energy                          ....   -39.812403277 Eh
Current gradient norm                   ....     0.086480276 Eh/bohr
Maximum allowed component of the step   ....  0.300
Current trust radius                    ....  0.300
Updating the Hessian (BFGS)             .... done
Forming the augmented Hessian           .... done
Diagonalizing the augmented Hessian     .... done
Last element of RFO vector              ....  0.999997175
Lowest eigenvalues of augmented Hessian:
 -0.000002021  0.357702419  0.373574723  0.373576458 999.999999999
Length of the computed step             ....  0.002377117
The final length of the internal step   ....  0.002377117
Converting the step to cartesian space:
 Initial RMS(Int)=    0.0008984657
Transforming coordinates:
 Iter   0:  RMS(Cart)=    0.0006325303 RMS(Int)=    0.0008984657
 Iter   1:  RMS(Cart)=    0.0000000000 RMS(Int)=    0.0000000000
Imposing constraints:
 Iter   0:  RMS(Cart)=    0.0000000001 RMS(Int)=    0.0000000002
CONVERGED
done
Storing new coordinates                 .... done

                                .--------------------.
          ----------------------|Geometry convergence|-------------------------
          Item                value                   Tolerance       Converged
          ---------------------------------------------------------------------
          Energy change      -0.0004933841            0.0000050000      NO
          RMS gradient        0.0003213834            0.0001000000      NO
          MAX gradient        0.0004946114            0.0003000000      NO
          RMS step            0.0008984657            0.0020000000      YES
          MAX step            0.0013827690            0.0040000000      YES
          ........................................................
          Max(Bonds)      0.0007      Max(Angles)    0.00
          Max(Dihed)        0.00      Max(Improp)    0.00
          ---------------------------------------------------------------------

The optimization has not yet converged - more geometry cycles are needed


    ---------------------------------------------------------------------------
                         Redundant Internal Coordinates
                            (Angstroem and degrees)

        Definition                    Value    dE/dq     Step     New-Value
    ----------------------------------------------------------------------------
     1. B(H   1,C   0)                1.0954 -0.000483  0.0007    1.0961   
     2. B(H   2,C   0)                1.0954 -0.000495  0.0007    1.0962   
     3. B(H   3,C   0)                1.0954 -0.000495  0.0007    1.0962   
     4. A(H   2,C   0,H   3)          101.50 -0.038774   -0.00    101.50 C 
     5. A(H   1,C   0,H   2)          101.50 -0.016993   -0.00    101.50 C 
     6. A(H   1,C   0,H   3)          101.50 -0.016993   -0.00    101.50 C 
     7. I(H   1,H   3,H   2,C   0)     71.63  0.035610    0.00     71.63   
    ----------------------------------------------------------------------------

         *************************************************************
         *                GEOMETRY OPTIMIZATION CYCLE   3            *
         *************************************************************
---------------------------------
CARTESIAN COORDINATES (ANGSTROEM)
---------------------------------
  C      0.000015    0.000000    0.005427
  H      0.980159    0.000000   -0.485303
  H     -0.490087    0.848873   -0.485311
  H     -0.490087   -0.848873   -0.485311

----------------------------
CARTESIAN COORDINATES (A.U.)
----------------------------
  NO LB      ZA    FRAG     MASS         X           Y           Z
   0 C     6.0000    0    12.011    0.000028    0.000000    0.010255
   1 H     1.0000    0     1.008    1.852233    0.000000   -0.917090
   2 H     1.0000    0     1.008   -0.926130    1.604138   -0.917104
   3 H     1.0000    0     1.008   -0.926130   -1.604138   -0.917104

--------------------------------
INTERNAL COORDINATES (ANGSTROEM)
--------------------------------
 C      0   0   0     0.000000000000     0.00000000     0.00000000
 H      1   0   0     1.096128989656     0.00000000     0.00000000
 H      1   2   0     1.096179161275   101.49999997     0.00000000
 H      1   2   3     1.096179169224   101.49999997   104.41912473

---------------------------
INTERNAL COORDINATES (A.U.)
---------------------------
 C      0   0   0     0.000000000000     0.00000000     0.00000000
 H      1   0   0     2.071383597901     0.00000000     0.00000000
 H      1   2   0     2.071478408521   101.49999997     0.00000000
 H      1   2   3     2.071478423542   101.49999997   104.41912473



           ************************************************************
           *        Program running with 18 parallel MPI-processes    *
           *              working on a common directory               *
           ************************************************************
------------------------------------------------------------------------------
                   ___                                                        
                  /   \      - P O W E R E D   B Y -                         
                 /     \                                                     
                 |  |  |   _    _      __       _____    __    __             
                 |  |  |  | |  | |    /  \     |  _  \  |  |  /  |          
                  \  \/   | |  | |   /    \    | | | |  |  | /  /          
                 / \  \   | |__| |  /  /\  \   | |_| |  |  |/  /          
                |  |  |   |  __  | /  /__\  \  |    /   |      \           
                |  |  |   | |  | | |   __   |  |    \   |  |\   \          
                \     /   | |  | | |  |  |  |  | |\  \  |  | \   \       
[...]
  ZA   - Total nuclear charge
  QA   - Mulliken gross atomic charge
  VA   - Mayer's total valence
  BVA  - Mayer's bonded valence
  FA   - Mayer's free valence

  ATOM       NA         ZA         QA         VA         BVA        FA
  0 C      6.6712     6.0000    -0.6712     3.8273     3.0338     0.7935
  1 H      0.7766     1.0000     0.2234     1.0159     1.0147     0.0012
  2 H      0.7761     1.0000     0.2239     1.0153     1.0141     0.0012
  3 H      0.7761     1.0000     0.2239     1.0153     1.0141     0.0012

  Mayer bond orders larger than 0.100000
B(  0-C ,  1-H ) :   1.0116 B(  0-C ,  2-H ) :   1.0111 B(  0-C ,  3-H ) :   1.0111 


-------
TIMINGS
-------

Total SCF time: 0 days 0 hours 0 min 3 sec 

Total time                  ....       3.802 sec
Sum of individual times     ....       3.221 sec  ( 84.7%)

Fock matrix formation       ....       2.592 sec  ( 68.2%)
  Split-RI-J                ....       0.443 sec  ( 17.1% of F)
  Chain of spheres X        ....       0.675 sec  ( 26.0% of F)
  XC integration            ....       0.507 sec  ( 19.6% of F)
    Basis function eval.    ....       0.021 sec  (  4.1% of XC)
    Density eval.           ....       0.020 sec  (  4.0% of XC)
    XC-Functional eval.     ....       0.022 sec  (  4.4% of XC)
    XC-Potential eval.      ....       0.026 sec  (  5.1% of XC)
Diagonalization             ....       0.062 sec  (  1.6%)
Density matrix formation    ....       0.012 sec  (  0.3%)
Population analysis         ....       0.131 sec  (  3.4%)
Initial guess               ....       0.005 sec  (  0.1%)
Orbital Transformation      ....       0.000 sec  (  0.0%)
Orbital Orthonormalization  ....       0.002 sec  (  0.0%)
DIIS solution               ....       0.070 sec  (  1.8%)
Grid generation             ....       0.349 sec  (  9.2%)

Maximum memory used throughout the entire SCF-calculation: 58.5 MB


-------------------------------------------------------------------------------
                          DFT DISPERSION CORRECTION                            
                                                                               
                              DFTD3 V3.1  Rev 1                                
                              USING zero damping                               
-------------------------------------------------------------------------------
The omegaB97X-D3 functional is recognized. Fit by Chai et al.
Active option DFTDOPT                   ...         3   

molecular C6(AA) [au] = 106.999571 


            DFT-D V3
 parameters
 s6 scaling factor         :     1.0000 
 rs6 scaling factor        :     1.2810 
 s8 scaling factor         :     1.0000 
 rs8 scaling factor        :     1.0940 
 Damping factor alpha6     :    14.0000 
 Damping factor alpha8     :    16.0000 
 ad hoc parameters k1-k3   :    16.0000     1.3333    -4.0000 

 Edisp/kcal,au: -0.005403505852  -0.000008611034 
 E6   /kcal   :  -0.000840695 
 E8   /kcal   :  -0.004562811 
 % E8         :  84.441669338 

-------------------------   ----------------
Dispersion correction           -0.000008611
-------------------------   ----------------


-------------------------   --------------------
FINAL SINGLE POINT ENERGY       -39.812404348709
-------------------------   --------------------

                                *** OPTIMIZATION RUN DONE ***

                            ***************************************
                            *     ORCA property calculations      *
                            ***************************************

                                    ---------------------
                                    Active property flags
                                    ---------------------
   (+) Dipole Moment


------------------------------------------------------------------------------
                       ORCA ELECTRIC PROPERTIES CALCULATION
------------------------------------------------------------------------------

Dipole Moment Calculation                       ... on
Quadrupole Moment Calculation                   ... off
Polarizability Calculation                      ... off
GBWName                                         ... /beegfs/scratch/ispackman/PFAS_EPR_calcs/benchmark/JChemEd_CF3_radical/CH3_radical_101.5_degrees_IN-PROGRESS/CH3_radical_101.5_degrees.gbw
Electron density                                ... /beegfs/scratch/ispackman/PFAS_EPR_calcs/benchmark/JChemEd_CF3_radical/CH3_radical_101.5_degrees_IN-PROGRESS/CH3_radical_101.5_degrees.scfp
The origin for moment calculation is the CENTER OF MASS  = ( 0.000021, -0.000000 -0.176249)

-------------
DIPOLE MOMENT
-------------
                                X             Y             Z
Electronic contribution:     -0.00000       0.00000       0.80812
Nuclear contribution   :     -0.00005       0.00000      -1.10342
                        -----------------------------------------
Total Dipole Moment    :     -0.00005       0.00000      -0.29530
                        -----------------------------------------
Magnitude (a.u.)       :      0.29530
Magnitude (Debye)      :      0.75059



--------------------
Rotational spectrum 
--------------------
 
Rotational constants in cm-1:     8.285876     8.285504     5.802001 
Rotational constants in MHz : 248404.327804 248393.155779 173939.624148 

 Dipole components along the rotational axes: 
x,y,z [a.u.] :     0.000000     0.000061    -0.295297 
x,y,z [Debye]:     0.000000     0.000154    -0.750585 

 


           ************************************************************
           *        Program running with 18 parallel MPI-processes    *
           *              working on a common directory               *
           ************************************************************

-------------------------------------------------------------------------------
                               ORCA SCF HESSIAN
-------------------------------------------------------------------------------

                   --------- SHARK INITIALIZATION DONE ---------

Hessian of the Kohn-Sham DFT energy:
Kohn-Sham wavefunction type                      ... UKS
Hartree-Fock exchange scaling                    ...    0.196
Number of operators                              ...    2
Number of atoms                                  ...    4
Basis set dimensions                             ...   64
Integral neglect threshold                       ... 2.5e-11
Integral primitive cutoff                        ... 2.5e-12

Setting up DFT Hessian calculations              ... 

HESS GRID
---------

General Integration Accuracy     IntAcc      ... 4.629
Radial Grid Type                 RadialGrid  ... OptM3 with GC (2021)
Angular Grid (max. ang.)         AngularGrid ... 5 (Lebedev-434)
Angular grid pruning method      GridPruning ... 4 (adaptive)
Weight generation scheme         WeightScheme... Becke
Basis function cutoff            BFCut       ... 1.0000e-11
Integration weight cutoff        WCut        ... 1.0000e-14
Angular grids for H and He will be reduced by one unit
Partially contracted basis set               ... off
Rotationally invariant grid construction     ... off

Total number of grid points                  ...    27253
Total number of batches                      ...      427
Average number of points per batch           ...       63
Average number of grid points per atom       ...     6813

Building densities                               ... done   (      0.0 sec)
Calculating rho(r) on the grid                   ... done   (      0.1 sec)
Building xc-kernel on the grid                   ... done   (      0.1 sec)
                                                     done   (      0.4 sec)

Nuclear repulsion Hessian  (SHARK)               ... done   (      0.0 sec)

----------------------------------------------
Forming right-hand sides of CP-SCF equations     ...
----------------------------------------------
One electron integral derivatives  (SHARK)       ... done   (      0.0 sec)
Transforming the overlap derivative matrices     ... done   (      0.0 sec)
Making the Q(x) pseudodensities                  ... done   (      0.0 sec)
Adding the E*S(x)*S(y) terms to the Hessian      ... done   (      0.0 sec)
Calculating energy weighted overlap derivatives  ... done   (      0.0 sec)
Two electron integral derivatives (SHARK-RI)     ... done   (      0.5 sec)
Exchange-correlation integral derivatives        ... done   (      0.4 sec)
tr(F(y)Q(x)) contribution to the Hessian         ... done   (      0.0 sec)
Response fock operator R(S(x)) (SHARK-RIJCOSX)   ... done   (      0.5 sec)
XC Response fock operator R(S(x))                ... done   (      0.1 sec)
tr(F(y)S(x)) contribution to the Hessian         ... done   (      0.0 sec)
Transforming and finalizing RHSs                 ... done   (      0.0 sec)

----------------------------------------------
Solving the CP-SCF equations (RIJCOSX)           ...
----------------------------------------------
     CP-SCF ITERATION   0:   1.1948e-01 (   0.3 sec   0/ 12 done)
     CP-SCF ITERATION   1:   2.9510e-02 (   0.3 sec   0/ 12 done)
     CP-SCF ITERATION   2:   1.0001e-02 (   0.3 sec   0/ 12 done)
     CP-SCF ITERATION   3:   3.4110e-03 (   0.3 sec   0/ 12 done)
     CP-SCF ITERATION   4:   5.6271e-04 (   0.3 sec   1/ 12 done)
     CP-SCF ITERATION   5:   1.2611e-04 (   0.3 sec  11/ 12 done)
     CP-SCF ITERATION   6:   2.7208e-05 (   0.3 sec  12/ 12 done)
                    *** THE CP-SCF HAS CONVERGED ***

                                                 ... done   (      2.1 sec)
Forming perturbed density Hessian contributions  ... done   (      0.0 sec)
2nd integral derivative contribs (SHARK-RI)      ... done   (      0.7 sec)
Exchange-correlation Hessian                     ... done   (      0.3 sec)
Dispersion correction in the Hessian             ... done   (      0.1 sec)
Dipole derivatives                               ... (center of mass:  0.000021, -0.000000 -0.176249)done   (      0.1 sec)

Total SCF Hessian time: 0 days 0 hours 0 min 5 sec 

Writing the Hessian file to the disk             ... done


Maximum memory used throughout the entire SCFHESS-calculation: 109.3 MB

-----------------------
VIBRATIONAL FREQUENCIES
-----------------------

Scaling factor for frequencies =  1.000000000  (already applied!)

   0:         0.00 cm**-1
   1:         0.00 cm**-1
   2:         0.00 cm**-1
   3:         0.00 cm**-1
   4:         0.00 cm**-1
   5:         0.00 cm**-1
   6:      1296.74 cm**-1
   7:      1398.36 cm**-1
   8:      1400.78 cm**-1
   9:      3052.12 cm**-1
  10:      3103.88 cm**-1
  11:      3103.98 cm**-1


------------
NORMAL MODES
------------

These modes are the Cartesian displacements weighted by the diagonal matrix
M(i,i)=1/sqrt(m[i]) where m[i] is the mass of the displaced atom
Thus, these vectors are normalized but *not* orthogonal

                  0          1          2          3          4          5    
      0       0.000000   0.000000   0.000000   0.000000   0.000000   0.000000
      1       0.000000   0.000000   0.000000   0.000000   0.000000   0.000000
      2       0.000000   0.000000   0.000000   0.000000   0.000000   0.000000
      3       0.000000   0.000000   0.000000   0.000000   0.000000   0.000000
      4       0.000000   0.000000   0.000000   0.000000   0.000000   0.000000
      5       0.000000   0.000000   0.000000   0.000000   0.000000   0.000000
      6       0.000000   0.000000   0.000000   0.000000   0.000000   0.000000
      7       0.000000   0.000000   0.000000   0.000000   0.000000   0.000000
      8       0.000000   0.000000   0.000000   0.000000   0.000000   0.000000
      9       0.000000   0.000000   0.000000   0.000000   0.000000   0.000000
     10       0.000000   0.000000   0.000000   0.000000   0.000000   0.000000
     11       0.000000   0.000000   0.000000   0.000000   0.000000   0.000000
                  6          7          8          9         10         11    
      0       0.000101   0.000002  -0.073098  -0.000154  -0.087083   0.000054
      1       0.000000  -0.073111  -0.000002  -0.000000   0.000054   0.087073
      2       0.129848   0.000000   0.000158   0.052134  -0.000097   0.000000
      3      -0.248220   0.000003  -0.162739   0.539389   0.733720  -0.000454
      4      -0.000001   0.743121   0.000018  -0.000000   0.000027   0.043049
      5      -0.515363   0.000006  -0.291355  -0.207692  -0.345955   0.000214
      6       0.123505   0.392042   0.516884  -0.268777   0.152173   0.336697
      7      -0.215694   0.064013   0.391838   0.465417  -0.337941  -0.540078
      8      -0.515932  -0.251813   0.144728  -0.206764   0.173744   0.299792
      9       0.123507  -0.392066   0.516865  -0.268775   0.151755  -0.336888
     10       0.215693   0.064033  -0.391834  -0.465414   0.337270  -0.540501
     11      -0.515933   0.251805   0.144740  -0.206762   0.173371  -0.300009


-----------
IR SPECTRUM
-----------

 Mode   freq       eps      Int      T**2         TX        TY        TZ
       cm**-1   L/(mol*cm) km/mol    a.u.
----------------------------------------------------------------------------
  6:   1296.74   0.001800    9.10  0.000433  (-0.000065 -0.000000 -0.020815)
  7:   1398.36   0.000869    4.39  0.000194  (-0.000000  0.013926 -0.000000)
  8:   1400.78   0.000876    4.43  0.000195  ( 0.013972  0.000000  0.000058)
  9:   3052.12   0.000016    0.08  0.000002  (-0.000084 -0.000000  0.001285)
 10:   3103.88   0.006723   33.98  0.000676  (-0.025999  0.000016 -0.000052)
 11:   3103.98   0.006883   34.79  0.000692  ( 0.000016  0.026306  0.000000)

* The epsilon (eps) is given for a Dirac delta lineshape.
** The dipole moment derivative (T) already includes vibrational overlap.

The first frequency considered to be a vibration is 6
The total number of vibrations considered is 6


--------------------------
THERMOCHEMISTRY AT 298.15K
--------------------------

Temperature         ... 298.15 K
Pressure            ... 1.00 atm
Total Mass          ... 15.03 AMU

Throughout the following assumptions are being made:
  (1) The electronic state is orbitally nondegenerate
      but the spin degeneracy is treated
  (2) There are no thermally accessible electronically excited states
  (3) Hindered rotations indicated by low frequency modes are not
      treated as such but are treated as vibrations and this may
      cause some error
  (4) All equations used are the standard statistical mechanics
      equations for an ideal gas
  (5) All vibrations are strictly harmonic

freq.    1296.74  E(vib)   ...       0.01 
freq.    1398.36  E(vib)   ...       0.00 
freq.    1400.78  E(vib)   ...       0.00 
freq.    3052.12  E(vib)   ...       0.00 
freq.    3103.88  E(vib)   ...       0.00 
freq.    3103.98  E(vib)   ...       0.00 

------------
INNER ENERGY
------------

The inner energy is: U= E(el) + E(ZPE) + E(vib) + E(rot) + E(trans)
    E(el)   - is the total energy from the electronic structure calculation
              = E(kin-el) + E(nuc-el) + E(el-el) + E(nuc-nuc)
    E(ZPE)  - the the zero temperature vibrational energy from the frequency calculation
    E(vib)  - the the finite temperature correction to E(ZPE) due to population
              of excited vibrational states
    E(rot)  - is the rotational thermal energy
    E(trans)- is the translational thermal energy

Summary of contributions to the inner energy U:
Electronic energy                ...    -39.81240435 Eh
Zero point energy                ...      0.03042690 Eh      19.09 kcal/mol
Thermal vibrational correction   ...      0.00002625 Eh       0.02 kcal/mol
Thermal rotational correction    ...      0.00141627 Eh       0.89 kcal/mol
Thermal translational correction ...      0.00141627 Eh       0.89 kcal/mol
-----------------------------------------------------------------------
Total thermal energy                    -39.77911865 Eh


Summary of corrections to the electronic energy:
(perhaps to be used in another calculation)
Total thermal correction                  0.00285880 Eh       1.79 kcal/mol
Non-thermal (ZPE) correction              0.03042690 Eh      19.09 kcal/mol
-----------------------------------------------------------------------
Total correction                          0.03328570 Eh      20.89 kcal/mol


--------
ENTHALPY
--------

The enthalpy is H = U + kB*T
                kB is Boltzmann's constant
Total free energy                 ...    -39.77911865 Eh 
Thermal Enthalpy correction       ...      0.00094421 Eh       0.59 kcal/mol
-----------------------------------------------------------------------
Total Enthalpy                    ...    -39.77817444 Eh


Note: Rotational entropy computed according to Herzberg 
Infrared and Raman Spectra, Chapter V,1, Van Nostrand Reinhold, 1945 
Point Group:  C3v, Symmetry Number:   3  
Rotational constants in cm-1:     8.285876     8.285504     5.802001 

Vibrational entropy computed according to the QRRHO of S. Grimme
Chem.Eur.J. 2012 18 9955


-------
ENTROPY
-------

The entropy contributions are T*S = T*(S(el)+S(vib)+S(rot)+S(trans))
     S(el)   - electronic entropy
     S(vib)  - vibrational entropy
     S(rot)  - rotational entropy
     S(trans)- translational entropy
The entropies will be listed as multiplied by the temperature to get
units of energy

Electronic entropy                ...      0.00065446 Eh      0.41 kcal/mol
Vibrational entropy               ...      0.00003028 Eh      0.02 kcal/mol
Rotational entropy                ...      0.00564699 Eh      3.54 kcal/mol
Translational entropy             ...      0.01618771 Eh     10.16 kcal/mol
-----------------------------------------------------------------------
Final entropy term                ...      0.02251943 Eh     14.13 kcal/mol

In case the symmetry of your molecule has not been determined correctly
or in case you have a reason to use a different symmetry number we print 
out the resulting rotational entropy values for sn=1,12 :
 --------------------------------------------------------
|  sn= 1 | S(rot)=       0.00668428 Eh      4.19 kcal/mol|
|  sn= 2 | S(rot)=       0.00602982 Eh      3.78 kcal/mol|
|  sn= 3 | S(rot)=       0.00564699 Eh      3.54 kcal/mol|
|  sn= 4 | S(rot)=       0.00537537 Eh      3.37 kcal/mol|
|  sn= 5 | S(rot)=       0.00516468 Eh      3.24 kcal/mol|
|  sn= 6 | S(rot)=       0.00499254 Eh      3.13 kcal/mol|
|  sn= 7 | S(rot)=       0.00484699 Eh      3.04 kcal/mol|
|  sn= 8 | S(rot)=       0.00472091 Eh      2.96 kcal/mol|
|  sn= 9 | S(rot)=       0.00460970 Eh      2.89 kcal/mol|
|  sn=10 | S(rot)=       0.00451022 Eh      2.83 kcal/mol|
|  sn=11 | S(rot)=       0.00442023 Eh      2.77 kcal/mol|
|  sn=12 | S(rot)=       0.00433808 Eh      2.72 kcal/mol|
 --------------------------------------------------------


-------------------
GIBBS FREE ENERGY
-------------------

The Gibbs free energy is G = H - T*S

Total enthalpy                    ...    -39.77817444 Eh 
Total entropy correction          ...     -0.02251943 Eh    -14.13 kcal/mol
-----------------------------------------------------------------------
Final Gibbs free energy         ...    -39.80069387 Eh

For completeness - the Gibbs free energy minus the electronic energy
G-E(el)                           ...      0.01171048 Eh      7.35 kcal/mol


Timings for individual modules:

Sum of individual times         ...       61.000 sec (=   1.017 min)
GTO integral calculation        ...       10.857 sec (=   0.181 min)  17.8 %
SCF iterations                  ...       32.414 sec (=   0.540 min)  53.1 %
SCF Gradient evaluation         ...        9.167 sec (=   0.153 min)  15.0 %
Geometry relaxation             ...        0.178 sec (=   0.003 min)   0.3 %
Analytical frequency calculation...        8.384 sec (=   0.140 min)  13.7 %
                             ****ORCA TERMINATED NORMALLY****
TOTAL RUN TIME: 0 days 0 hours 1 minutes 12 seconds 432 msec

slurmID:    32260094
totalRuntime[s]:    72.481605413
