
                                 *****************
                                 * O   R   C   A *
                                 *****************

                                            #,                                       
                                            ###                                      
                                            ####                                     
                                            #####                                    
                                            ######                                   
                                           ########,                                 
                                     ,,################,,,,,                         
                               ,,#################################,,                 
                          ,,##########################################,,             
                       ,#########################################, ''#####,          
                    ,#############################################,,   '####,        
                  ,##################################################,,,,####,       
                ,###########''''           ''''###############################       
              ,#####''   ,,,,##########,,,,          '''####'''          '####       
            ,##' ,,,,###########################,,,                        '##       
           ' ,,###''''                  '''############,,,                           
         ,,##''                                '''############,,,,        ,,,,,,###''
      ,#''                                            '''#######################'''  
     '                                                          ''''####''''         
             ,#######,   #######,   ,#######,      ##                                
            ,#'     '#,  ##    ##  ,#'     '#,    #''#        ######   ,####,        
            ##       ##  ##   ,#'  ##            #'  '#       #        #'  '#        
            ##       ##  #######   ##           ,######,      #####,   #    #        
            '#,     ,#'  ##    ##  '#,     ,#' ,#      #,         ##   #,  ,#        
             '#######'   ##     ##  '#######'  #'      '#     #####' # '####'        



                  #######################################################
                  #                        -***-                        #
                  #          Department of theory and spectroscopy      #
                  #    Directorship and core code : Frank Neese         #
                  #        Max Planck Institute fuer Kohlenforschung    #
                  #                Kaiser Wilhelm Platz 1               #
                  #                 D-45470 Muelheim/Ruhr               #
                  #                      Germany                        #
                  #                                                     #
                  #                  All rights reserved                #
                  #                        -***-                        #
                  #######################################################


                         Program Version 5.0.4 -  RELEASE  -


 With contributions from (in alphabetic order):
   Daniel Aravena         : Magnetic Suceptibility
   Michael Atanasov       : Ab Initio Ligand Field Theory (pilot matlab implementation)
   Alexander A. Auer      : GIAO ZORA, VPT2 properties, NMR spectrum
   Ute Becker             : Parallelization
   Giovanni Bistoni       : ED, misc. LED, open-shell LED, HFLD
   Martin Brehm           : Molecular dynamics
   Dmytro Bykov           : SCF Hessian
   Vijay G. Chilkuri      : MRCI spin determinant printing, contributions to CSF-ICE
   Dipayan Datta          : RHF DLPNO-CCSD density
   Achintya Kumar Dutta   : EOM-CC, STEOM-CC
   Dmitry Ganyushin       : Spin-Orbit,Spin-Spin,Magnetic field MRCI
   Miquel Garcia          : C-PCM and meta-GGA Hessian, CC/C-PCM, Gaussian charge scheme
   Yang Guo               : DLPNO-NEVPT2, F12-NEVPT2, CIM, IAO-localization
   Andreas Hansen         : Spin unrestricted coupled pair/coupled cluster methods
   Benjamin Helmich-Paris : MC-RPA, TRAH-SCF, COSX integrals
   Lee Huntington         : MR-EOM, pCC
   Robert Izsak           : Overlap fitted RIJCOSX, COSX-SCS-MP3, EOM
   Marcus Kettner         : VPT2
   Christian Kollmar      : KDIIS, OOCD, Brueckner-CCSD(T), CCSD density, CASPT2, CASPT2-K
   Simone Kossmann        : Meta GGA functionals, TD-DFT gradient, OOMP2, MP2 Hessian
   Martin Krupicka        : Initial AUTO-CI
   Lucas Lang             : DCDCAS
   Marvin Lechner         : AUTO-CI (C++ implementation), FIC-MRCC
   Dagmar Lenk            : GEPOL surface, SMD
   Dimitrios Liakos       : Extrapolation schemes; Compound Job, initial MDCI parallelization
   Dimitrios Manganas     : Further ROCIS development; embedding schemes
   Dimitrios Pantazis     : SARC Basis sets
   Anastasios Papadopoulos: AUTO-CI, single reference methods and gradients
   Taras Petrenko         : DFT Hessian,TD-DFT gradient, ASA, ECA, R-Raman, ABS, FL, XAS/XES, NRVS
   Peter Pinski           : DLPNO-MP2, DLPNO-MP2 Gradient
   Christoph Reimann      : Effective Core Potentials
   Marius Retegan         : Local ZFS, SOC
   Christoph Riplinger    : Optimizer, TS searches, QM/MM, DLPNO-CCSD(T), (RO)-DLPNO pert. Triples
   Tobias Risthaus        : Range-separated hybrids, TD-DFT gradient, RPA, STAB
   Michael Roemelt        : Original ROCIS implementation
   Masaaki Saitow         : Open-shell DLPNO-CCSD energy and density
   Barbara Sandhoefer     : DKH picture change effects
   Avijit Sen             : IP-ROCIS
   Kantharuban Sivalingam : CASSCF convergence, NEVPT2, FIC-MRCI
   Bernardo de Souza      : ESD, SOC TD-DFT
   Georgi Stoychev        : AutoAux, RI-MP2 NMR, DLPNO-MP2 response
   Willem Van den Heuvel  : Paramagnetic NMR
   Boris Wezisla          : Elementary symmetry handling
   Frank Wennmohs         : Technical directorship


 We gratefully acknowledge several colleagues who have allowed us to
 interface, adapt or use parts of their codes:
   Stefan Grimme, W. Hujo, H. Kruse, P. Pracht,  : VdW corrections, initial TS optimization,
                  C. Bannwarth, S. Ehlert          DFT functionals, gCP, sTDA/sTD-DF
   Ed Valeev, F. Pavosevic, A. Kumar             : LibInt (2-el integral package), F12 methods
   Garnet Chan, S. Sharma, J. Yang, R. Olivares  : DMRG
   Ulf Ekstrom                                   : XCFun DFT Library
   Mihaly Kallay                                 : mrcc  (arbitrary order and MRCC methods)
   Jiri Pittner, Ondrej Demel                    : Mk-CCSD
   Frank Weinhold                                : gennbo (NPA and NBO analysis)
   Christopher J. Cramer and Donald G. Truhlar   : smd solvation model
   Lars Goerigk                                  : TD-DFT with DH, B97 family of functionals
   V. Asgeirsson, H. Jonsson                     : NEB implementation
   FAccTs GmbH                                   : IRC, NEB, NEB-TS, DLPNO-Multilevel, CI-OPT
                                                   MM, QMMM, 2- and 3-layer-ONIOM, Crystal-QMMM,
                                                   LR-CPCM, SF, NACMEs, symmetry and pop. for TD-DFT,
                                                   nearIR, NL-DFT gradient (VV10), updates on ESD,
                                                   ML-optimized integration grids
   S Lehtola, MJT Oliveira, MAL Marques          : LibXC Library
   Liviu Ungur et al                             : ANISO software


 Your calculation uses the libint2 library for the computation of 2-el integrals
 For citations please refer to: http://libint.valeyev.net

 Your ORCA version has been built with support for libXC version: 5.1.0
 For citations please refer to: https://tddft.org/programs/libxc/

 This ORCA versions uses:
   CBLAS   interface :  Fast vector & matrix operations
   LAPACKE interface :  Fast linear algebra routines
   SCALAPACK package :  Parallel linear algebra routines
   Shared memory     :  Shared parallel matrices
   BLAS/LAPACK       :  OpenBLAS 0.3.15  USE64BITINT DYNAMIC_ARCH NO_AFFINITY SkylakeX SINGLE_THREADED
        Core in use  :  SkylakeX
   Copyright (c) 2011-2014, The OpenBLAS Project


Your calculation utilizes the atom-pairwise dispersion correction
with the zero-damping scheme (D30)
Cite in your paper:
S.Grimme, J.Antony, S.Ehrlich and H.Krieg, J.Chem.Phys., 132, (2010), 154104 
   

XCFun DFT library Copyright 2009-2010 Ulf Ekstrom and contributors.
See http://admol.org/xcfun for more information.
This is free software; see the source code for copying conditions.
There is ABSOLUTELY NO WARRANTY; not even for MERCHANTABILITY or FITNESS FOR A PARTICULAR PURPOSE.
For details see the documentation.
Scientific users of this library should cite U. Ekstrom, L. Visscher, R. Bast, A. J. Thorvaldsen and K. Ruud;
J.Chem.Theor.Comp. 2010, DOI: 10.1021/ct100117s
XCFun Version 0.99 

================================================================================

----- Orbital basis set information -----
Your calculation utilizes the basis: def2-TZVPD
   F. Weigend and R. Ahlrichs, Phys. Chem. Chem. Phys. 7, 3297 (2005).
   D. Rappoport and F. Furche, J. Chem. Phys. 133 134105 (2010).

----- AuxJ basis set information -----
Your calculation utilizes the auxiliary basis: def2/J
   F. Weigend, Phys. Chem. Chem. Phys. 8, 1057 (2006).

================================================================================
                                        WARNINGS
                       Please study these warnings very carefully!
================================================================================


WARNING: Geometry Optimization
  ===> : Switching off AutoStart
         For restart on a previous wavefunction, please use MOREAD

INFO   : the flag for use of the SHARK integral package has been found!

================================================================================
                                       INPUT FILE
================================================================================
NAME = /beegfs/scratch/ispackman/PFAS_EPR_calcs/benchmark/JChemEd_CF3_radical/CH3_radical_106.0_degrees_IN-PROGRESS/CH3_radical_106.0_degrees.inp
|  1> ! UKS TightSCF wB97x-D3 def2-TZVPD xyzfile opt freq
|  2> 
|  3> # CH3 radical 106.0 degrees fixed
|  4> 
|  5> %maxcore 1000
|  6> %pal
|  7> nprocs 18
|  8> end
|  9> 
| 10> %geom Constraints
| 11>         { A * 0 * C }
| 12>     end
| 13> end
| 14> * xyz 0 2
| 15> C 0.00 0.00 0.00
| 16> H 0.9959596417 0.0000000000 -0.4176893488
| 17> H -0.4979798208 0.8625263509 -0.4176893488
| 18> H -0.4979798208 -0.8625263509 -0.4176893488
| 19> **                         ****END OF INPUT****
================================================================================

                       *****************************
                       * Geometry Optimization Run *
                       *****************************

Geometry optimization settings:
Update method            Update   .... BFGS
Choice of coordinates    CoordSys .... Z-matrix Internals
Initial Hessian          InHess   .... Almoef's Model

Convergence Tolerances:
Energy Change            TolE     ....  5.0000e-06 Eh
Max. Gradient            TolMAXG  ....  3.0000e-04 Eh/bohr
RMS Gradient             TolRMSG  ....  1.0000e-04 Eh/bohr
Max. Displacement        TolMAXD  ....  4.0000e-03 bohr
RMS Displacement         TolRMSD  ....  2.0000e-03 bohr
Strict Convergence                ....  False
------------------------------------------------------------------------------
                        ORCA OPTIMIZATION COORDINATE SETUP
------------------------------------------------------------------------------

The optimization will be done in new redundant internal coordinates
Making redundant internal coordinates   ...  (new redundants) done
Evaluating the initial hessian          ...  (Almloef) done
Evaluating the coordinates              ...  done
Calculating the B-matrix                .... done
Calculating the G-matrix                .... done
Diagonalizing the G-matrix              .... done
Imposing constraints:
 Iter   0:  RMS(Cart)=    0.0000000000 RMS(Int)=    0.0000000000
CONVERGED
Will constrain atom 0 coordinate 1 
Will constrain atom 0 coordinate 2 
Will constrain atom 1 coordinate 2 
The first mode is                       ....    1
The number of degrees of freedom        ....    6
Storing new coordinates                 .... done

    -----------------------------------------------------------------
                    Redundant Internal Coordinates


    -----------------------------------------------------------------
         Definition                    Initial Value    Approx d2E/dq
    -----------------------------------------------------------------
      1. B(H   1,C   0)                  1.0800         0.373575   
      2. B(H   2,C   0)                  1.0800         0.373575   
      3. B(H   3,C   0)                  1.0800         0.373575   
      4. A(H   2,C   0,H   3)          106.0000         0.294224 C 
      5. A(H   1,C   0,H   2)          106.0000         0.294224 C 
      6. A(H   1,C   0,H   3)          106.0000         0.294224 C 
      7. I(H   1,H   3,H   2,C   0)     62.7412         0.003403   
    -----------------------------------------------------------------

Number of atoms                         .... 4
Number of degrees of freedom            .... 7

         *************************************************************
         *                GEOMETRY OPTIMIZATION CYCLE   1            *
         *************************************************************
---------------------------------
CARTESIAN COORDINATES (ANGSTROEM)
---------------------------------
  C      0.000000    0.000000    0.000000
  H      0.995960    0.000000   -0.417689
  H     -0.497980    0.862526   -0.417689
  H     -0.497980   -0.862526   -0.417689

----------------------------
CARTESIAN COORDINATES (A.U.)
----------------------------
  NO LB      ZA    FRAG     MASS         X           Y           Z
   0 C     6.0000    0    12.011    0.000000    0.000000    0.000000
   1 H     1.0000    0     1.008    1.882091    0.000000   -0.789318
   2 H     1.0000    0     1.008   -0.941045    1.629939   -0.789318
   3 H     1.0000    0     1.008   -0.941045   -1.629939   -0.789318

--------------------------------
INTERNAL COORDINATES (ANGSTROEM)
--------------------------------
 C      0   0   0     0.000000000000     0.00000000     0.00000000
 H      1   0   0     1.079999999998     0.00000000     0.00000000
 H      1   2   0     1.080000000010   106.00000000     0.00000000
 H      1   2   3     1.080000000010   106.00000000   112.36614292

---------------------------
INTERNAL COORDINATES (A.U.)
---------------------------
 C      0   0   0     0.000000000000     0.00000000     0.00000000
 H      1   0   0     2.040904224632     0.00000000     0.00000000
 H      1   2   0     2.040904224654   106.00000000     0.00000000
 H      1   2   3     2.040904224654   106.00000000   112.36614292

---------------------
BASIS SET INFORMATION
---------------------
There are 2 groups of distinct atoms

 Group   1 Type C   : 12s6p3d1f contracted to 6s3p3d1f pattern {621111/411/111/1}
 Group   2 Type H   : 5s2p contracted to 3s2p pattern {311/11}

Atom   0C    basis set group =>   1
Atom   1H    basis set group =>   2
Atom   2H    basis set group =>   2
Atom   3H    basis set group =>   2
---------------------------------
AUXILIARY/J BASIS SET INFORMATION
---------------------------------
There are 2 groups of distinct atoms

 Group   1 Type C   : 12s5p4d2f1g contracted to 6s4p3d1f1g pattern {711111/2111/211/2/1}
 Group   2 Type H   : 5s2p1d contracted to 3s1p1d pattern {311/2/1}

Atom   0C    basis set group =>   1
Atom   1H    basis set group =>   2
Atom   2H    basis set group =>   2
Atom   3H    basis set group =>   2


           ************************************************************
           *        Program running with 18 parallel MPI-processes    *
           *              working on a common directory               *
           ************************************************************
------------------------------------------------------------------------------
                           ORCA GTO INTEGRAL CALCULATION
                           -- RI-GTO INTEGRALS CHOSEN --
------------------------------------------------------------------------------
------------------------------------------------------------------------------
                   ___                                                        
                  /   \      - P O W E R E D   B Y -                         
                 /     \                                                     
                 |  |  |   _    _      __       _____    __    __             
                 |  |  |  | |  | |    /  \     |  _  \  |  |  /  |          
                  \  \/   | |  | |   /    \    | | | |  |  | /  /          
                 / \  \   | |__| |  /  /\  \   | |_| |  |  |/  /          
                |  |  |   |  __  | /  /__\  \  |    /   |      \           
                |  |  |   | |  | | |   __   |  |    \   |  |\   \          
                \     /   | |  | | |  |  |  |  | |\  \  |  | \   \       
                 \___/    |_|  |_| |__|  |__|  |_| \__\ |__|  \__/        
                                                                              
                      - O R C A' S   B I G   F R I E N D -                    
                                      &                                       
                       - I N T E G R A L  F E E D E R -                       
                                                                              
 v1 FN, 2020, v2 2021                                                         
------------------------------------------------------------------------------


Reading SHARK input file /beegfs/scratch/ispackman/PFAS_EPR_calcs/benchmark/JChemEd_CF3_radical/CH3_radical_106.0_degrees_IN-PROGRESS/CH3_radical_106.0_degrees.SHARKINP.tmp ... ok
----------------------
SHARK INTEGRAL PACKAGE
----------------------

Number of atoms                             ...      4
Number of basis functions                   ...     64
Number of shells                            ...     28
Maximum angular momentum                    ...      3
Integral batch strategy                     ... SHARK/LIBINT Hybrid
RI-J (if used) integral strategy            ... SPLIT-RIJ (Revised 2003 algorithm where possible)
Printlevel                                  ...      1
Contraction scheme used                     ... SEGMENTED contraction
Coulomb Range Separation                    ... NOT USED
Exchange Range Separation                   ... Long Range
   Mu parameter                             ...  0.250000
   Scaling (regular/separated)              ...  0.195728  0.804272
Finite Nucleus Model                        ... NOT USED
Auxiliary Coulomb fitting basis             ... AVAILABLE
   # of basis functions in Aux-J            ...     82
   # of shells in Aux-J                     ...     30
   Maximum angular momentum in Aux-J        ...      4
Auxiliary J/K fitting basis                 ... NOT available
Auxiliary Correlation fitting basis         ... NOT available
Auxiliary 'external' fitting basis          ... NOT available
Integral threshold                          ...     2.500000e-11
Primitive cut-off                           ...     2.500000e-12
Primitive pair pre-selection threshold      ...     2.500000e-12

Calculating pre-screening integrals         ... done (  0.0 sec) Dimension = 28
Organizing shell pair data                  ... done (  0.0 sec)
Shell pair information
Total number of shell pairs                 ...       406
Shell pairs after pre-screening             ...       406
Total number of primitive shell pairs       ...       977
Primitive shell pairs kept                  ...       947
          la=0 lb=0:    120 shell pairs
          la=1 lb=0:    135 shell pairs
          la=1 lb=1:     45 shell pairs
          la=2 lb=0:     45 shell pairs
          la=2 lb=1:     27 shell pairs
          la=2 lb=2:      6 shell pairs
          la=3 lb=0:     15 shell pairs
          la=3 lb=1:      9 shell pairs
          la=3 lb=2:      3 shell pairs
          la=3 lb=3:      1 shell pairs

Calculating one electron integrals          ... done (  0.0 sec)
Calculating RI/J V-Matrix + Cholesky decomp.... done (  0.1 sec)
Calculating Nuclear repulsion               ... done (  0.0 sec) ENN=      9.739900210486 Eh

SHARK setup successfully completed in   0.3 seconds

Maximum memory used throughout the entire GTOINT-calculation: 14.0 MB


           ************************************************************
           *        Program running with 18 parallel MPI-processes    *
           *              working on a common directory               *
           ************************************************************
-------------------------------------------------------------------------------
                                 ORCA SCF
-------------------------------------------------------------------------------

------------
SCF SETTINGS
------------
Hamiltonian:
 Density Functional     Method          .... DFT(GTOs)
 Exchange Functional    Exchange        .... WB97X-D3
 Correlation Functional Correlation     .... WB97X-D3
 Gradients option       PostSCFGGA      .... off
 Hybrid DFT is turned on
   Fraction HF Exchange ScalHFX         ....  0.195728
   Scaling of DF-GGA-X  ScalDFX         ....  0.000000
   Scaling of DF-GGA-C  ScalDFC         ....  1.000000
   Scaling of DF-LDA-C  ScalLDAC        ....  1.000000
   Perturbative correction              ....  0.000000
   Density functional embedding theory  .... OFF
 Long-range corrected/Screened/Range-Separated Hybrid DFT is turned on
   Amount of maximum screened exact exchange              ....  0.804272
   Range separation parameter mu (erf(mu*r12)/r12)        ....  0.250000
 RI-approximation to the Coulomb term is turned on
   Number of AuxJ basis functions       .... 82
   RIJ-COSX (HFX calculated with COS-X)).... on


General Settings:
 Integral files         IntName         .... /beegfs/scratch/ispackman/PFAS_EPR_calcs/benchmark/JChemEd_CF3_radical/CH3_radical_106.0_degrees_IN-PROGRESS/CH3_radical_106.0_degrees
 Hartree-Fock type      HFTyp           .... UHF
 Total Charge           Charge          ....    0
 Multiplicity           Mult            ....    2
 Number of Electrons    NEL             ....    9
 Basis Dimension        Dim             ....   64
 Nuclear Repulsion      ENuc            ....      9.7399002105 Eh

Convergence Acceleration:
 DIIS                   CNVDIIS         .... on
   Start iteration      DIISMaxIt       ....    12
   Startup error        DIISStart       ....  0.200000
   # of expansion vecs  DIISMaxEq       ....     5
   Bias factor          DIISBfac        ....   1.050
   Max. coefficient     DIISMaxC        ....  10.000
 Trust-Rad. Augm. Hess. CNVTRAH         .... auto
   Auto Start mean grad. ratio tolernc. ....  1.125000
   Auto Start start iteration           ....    20
   Auto Start num. interpolation iter.  ....    10
   Max. Number of Micro iterations      ....    16
   Max. Number of Macro iterations      .... Maxiter - #DIIS iter
   Number of Davidson start vectors     ....     2
   Converg. threshold I  (grad. norm)   ....   1.000e-05
   Converg. threshold II (energy diff.) ....   1.000e-08
   Grad. Scal. Fac. for Micro threshold ....   0.100
   Minimum threshold for Micro iter.    ....   0.010
   NR start threshold (gradient norm)   ....   0.001
   Initial trust radius                 ....   0.400
   Minimum AH scaling param. (alpha)    ....   1.000
   Maximum AH scaling param. (alpha)    .... 1000.000
   Orbital update algorithm             .... Taylor
   White noise on init. David. guess    .... on
   Maximum white noise                  ....   0.010
   Quad. conv. algorithm                .... NR
 SOSCF                  CNVSOSCF        .... off
 Level Shifting         CNVShift        .... on
   Level shift para.    LevelShift      ....    0.2500
   Turn off err/grad.   ShiftErr        ....    0.0010
 Zerner damping         CNVZerner       .... off
 Static damping         CNVDamp         .... on
   Fraction old density DampFac         ....    0.7000
   Max. Damping (<1)    DampMax         ....    0.9800
   Min. Damping (>=0)   DampMin         ....    0.0000
   Turn off err/grad.   DampErr         ....    0.1000
 Fernandez-Rico         CNVRico         .... off

SCF Procedure:
 Maximum # iterations   MaxIter         ....   125
 SCF integral mode      SCFMode         .... Direct
   Integral package                     .... SHARK and LIBINT hybrid scheme
 Reset frequency        DirectResetFreq ....    20
 Integral Threshold     Thresh          ....  2.500e-11 Eh
 Primitive CutOff       TCut            ....  2.500e-12 Eh

Convergence Tolerance:
 Convergence Check Mode ConvCheckMode   .... Total+1el-Energy
 Convergence forced     ConvForced      .... 0
 Energy Change          TolE            ....  1.000e-08 Eh
 1-El. energy change                    ....  1.000e-05 Eh
 DIIS Error             TolErr          ....  5.000e-07


Diagonalization of the overlap matrix:
Smallest eigenvalue                        ... 4.739e-05
Time for diagonalization                   ...    0.002 sec
Threshold for overlap eigenvalues          ... 1.000e-08
Number of eigenvalues below threshold      ... 0
Time for construction of square roots      ...    0.017 sec
Total time needed                          ...    0.020 sec

Time for model grid setup =    0.049 sec

------------------------------
INITIAL GUESS: MODEL POTENTIAL
------------------------------
Loading Hartree-Fock densities                     ... done
Calculating cut-offs                               ... done
Initializing the effective Hamiltonian             ... done
Setting up the integral package (SHARK)            ... done
Starting the Coulomb interaction                   ... done (   0.1 sec)
Reading the grid                                   ... done
Mapping shells                                     ... done
Starting the XC term evaluation                    ... done (   0.0 sec)
  promolecular density results
     # of electrons  =      8.997947365
     EX              =     -5.935002713
     EC              =     -0.259792434
     EX+EC           =     -6.194795147
Transforming the Hamiltonian                       ... done (   0.0 sec)
Diagonalizing the Hamiltonian                      ... done (   0.0 sec)
Back transforming the eigenvectors                 ... done (   0.0 sec)
Now organizing SCF variables                       ... done
                      ------------------
                      INITIAL GUESS DONE (   0.1 sec)
                      ------------------
-------------------
DFT GRID GENERATION
-------------------

General Integration Accuracy     IntAcc      ... 4.388
Radial Grid Type                 RadialGrid  ... OptM3 with GC (2021)
Angular Grid (max. ang.)         AngularGrid ... 4 (Lebedev-302)
Angular grid pruning method      GridPruning ... 4 (adaptive)
Weight generation scheme         WeightScheme... Becke
Basis function cutoff            BFCut       ... 1.0000e-11
Integration weight cutoff        WCut        ... 1.0000e-14
Angular grids for H and He will be reduced by one unit
Partially contracted basis set               ... off
Rotationally invariant grid construction     ... off

Total number of grid points                  ...    17049
Total number of batches                      ...      268
Average number of points per batch           ...       63
Average number of grid points per atom       ...     4262
Time for grid setup =    0.086 sec

--------------------
COSX GRID GENERATION
--------------------

GRIDX 1
-------
General Integration Accuracy     IntAcc      ... 3.816
Radial Grid Type                 RadialGrid  ... OptM3 with GC (2021)
Angular Grid (max. ang.)         AngularGrid ... 1 (Lebedev-50)
Angular grid pruning method      GridPruning ... 4 (adaptive)
Weight generation scheme         WeightScheme... Becke
Basis function cutoff            BFCut       ... 1.0000e-11
Integration weight cutoff        WCut        ... 1.0000e-14
Angular grids for H and He will be reduced by one unit
Partially contracted basis set               ... on
Rotationally invariant grid construction     ... off

Total number of grid points                  ...     2149
Total number of batches                      ...       36
Average number of points per batch           ...       59
Average number of grid points per atom       ...      537
UseSFitting                                  ... on

GRIDX 2
-------
General Integration Accuracy     IntAcc      ... 4.020
Radial Grid Type                 RadialGrid  ... OptM3 with GC (2021)
Angular Grid (max. ang.)         AngularGrid ... 2 (Lebedev-110)
Angular grid pruning method      GridPruning ... 4 (adaptive)
Weight generation scheme         WeightScheme... Becke
Basis function cutoff            BFCut       ... 1.0000e-11
Integration weight cutoff        WCut        ... 1.0000e-14
Angular grids for H and He will be reduced by one unit
Partially contracted basis set               ... on
Rotationally invariant grid construction     ... off

Total number of grid points                  ...     5039
Total number of batches                      ...       82
Average number of points per batch           ...       61
Average number of grid points per atom       ...     1260
UseSFitting                                  ... on

GRIDX 3
-------
General Integration Accuracy     IntAcc      ... 4.338
Radial Grid Type                 RadialGrid  ... OptM3 with GC (2021)
Angular Grid (max. ang.)         AngularGrid ... 3 (Lebedev-194)
Angular grid pruning method      GridPruning ... 4 (adaptive)
Weight generation scheme         WeightScheme... Becke
Basis function cutoff            BFCut       ... 1.0000e-11
Integration weight cutoff        WCut        ... 1.0000e-14
Angular grids for H and He will be reduced by one unit
Partially contracted basis set               ... on
Rotationally invariant grid construction     ... off

Total number of grid points                  ...    11705
Total number of batches                      ...      186
Average number of points per batch           ...       62
Average number of grid points per atom       ...     2926
UseSFitting                                  ... on

Time for X-Grid setup             =    0.246 sec

--------------
SCF ITERATIONS
--------------
ITER       Energy         Delta-E        Max-DP      RMS-DP      [F,P]     Damp
               ***  Starting incremental Fock matrix formation  ***
  0    -39.7855148688   0.000000000000 0.04992738  0.00105833  0.0769406 0.7000
  1    -39.7992055226  -0.013690653740 0.04798536  0.00094187  0.0492998 0.7000
                               ***Turning on DIIS***
  2    -39.8069298416  -0.007724319005 0.10663415  0.00210811  0.0284023 0.0000
  3    -39.8202559574  -0.013326115835 0.03027328  0.00061310  0.0193617 0.0000
  4    -39.8218108146  -0.001554857222 0.01134750  0.00019990  0.0034206 0.0000
  5    -39.8218773998  -0.000066585217 0.00973732  0.00016525  0.0016055 0.0000
  6    -39.8218984180  -0.000021018134 0.01001237  0.00016529  0.0006248 0.0000
               *** Restarting incremental Fock matrix formation ***
                                   *** Resetting DIIS ***
  7    -39.8219111435  -0.000012725531 0.00119755  0.00001948  0.0000810 0.0000
  8    -39.8219112759  -0.000000132425 0.00062435  0.00001031  0.0000348 0.0000
  9    -39.8219113134  -0.000000037486 0.00001870  0.00000075  0.0000137 0.0000
 10    -39.8219113153  -0.000000001926 0.00000642  0.00000022  0.0000053 0.0000
                 **** Energy Check signals convergence ****

               *****************************************************
               *                     SUCCESS                       *
               *           SCF CONVERGED AFTER  11 CYCLES          *
               *****************************************************

Old exchange energy                            =     -2.173854389 Eh
New exchange energy                            =     -2.173858401 Eh
Exchange energy change after final integration =     -0.000004012 Eh
Total energy after final integration           =    -39.821915327 Eh
Final COS-X integration done in                =     0.117 sec

----------------
TOTAL SCF ENERGY
----------------

Total Energy       :          -39.82191533 Eh           -1083.60941 eV

Components:
Nuclear Repulsion  :            9.73990021 Eh             265.03616 eV
Electronic Energy  :          -49.56181554 Eh           -1348.64556 eV
One Electron Energy:          -71.74788278 Eh           -1952.35915 eV
Two Electron Energy:           22.18606724 Eh             603.71358 eV
Max COSX asymmetry :            0.00000017 Eh               0.00000 eV

Virial components:
Potential Energy   :          -79.48105417 Eh           -2162.78944 eV
Kinetic Energy     :           39.65913885 Eh            1079.18003 eV
Virial Ratio       :            2.00410439


DFT components:
N(Alpha)           :        4.999998774152 electrons
N(Beta)            :        4.000000747443 electrons
N(Total)           :        8.999999521595 electrons
E(XC)              :       -4.316231457636 Eh       
DFET-embed. en.    :        0.000000000000 Eh       

---------------
SCF CONVERGENCE
---------------

  Last Energy change         ...    7.4508e-11  Tolerance :   1.0000e-08
  Last MAX-Density change    ...    0.0000e+00  Tolerance :   1.0000e-07
  Last RMS-Density change    ...    0.0000e+00  Tolerance :   5.0000e-09
  Last DIIS Error            ...    1.2877e-06  Tolerance :   5.0000e-07

             **** THE GBW FILE WAS UPDATED (/beegfs/scratch/ispackman/PFAS_EPR_calcs/benchmark/JChemEd_CF3_radical/CH3_radical_106.0_degrees_IN-PROGRESS/CH3_radical_106.0_degrees.gbw) ****
             **** DENSITY /beegfs/scratch/ispackman/PFAS_EPR_calcs/benchmark/JChemEd_CF3_radical/CH3_radical_106.0_degrees_IN-PROGRESS/CH3_radical_106.0_degrees.scfp WAS UPDATED ****
             **** ENERGY FILE WAS UPDATED (/beegfs/scratch/ispackman/PFAS_EPR_calcs/benchmark/JChemEd_CF3_radical/CH3_radical_106.0_degrees_IN-PROGRESS/CH3_radical_106.0_degrees.en.tmp) ****
----------------------
UHF SPIN CONTAMINATION
----------------------

Warning: in a DFT calculation there is little theoretical justification to 
         calculate <S**2> as in Hartree-Fock theory. We will do it anyways
         but you should keep in mind that the values have only limited relevance

Expectation value of <S**2>     :     0.752941
Ideal value S*(S+1) for S=0.5   :     0.750000
Deviation                       :     0.002941

             **** THE GBW FILE WAS UPDATED (/beegfs/scratch/ispackman/PFAS_EPR_calcs/benchmark/JChemEd_CF3_radical/CH3_radical_106.0_degrees_IN-PROGRESS/CH3_radical_106.0_degrees.gbw) ****
             **** DENSITY /beegfs/scratch/ispackman/PFAS_EPR_calcs/benchmark/JChemEd_CF3_radical/CH3_radical_106.0_degrees_IN-PROGRESS/CH3_radical_106.0_degrees.scfp WAS UPDATED ****
----------------
ORBITAL ENERGIES
----------------
                 SPIN UP ORBITALS
  NO   OCC          E(Eh)            E(eV) 
   0   1.0000     -10.292000      -280.0596 
   1   1.0000      -0.813896       -22.1472 
   2   1.0000      -0.503454       -13.6997 
   3   1.0000      -0.503425       -13.6989 
   4   1.0000      -0.369294       -10.0490 
   5   0.0000       0.075894         2.0652 
   6   0.0000       0.161568         4.3965 
   7   0.0000       0.161576         4.3967 
   8   0.0000       0.188529         5.1301 
   9   0.0000       0.195435         5.3181 
  10   0.0000       0.195436         5.3181 
  11   0.0000       0.226757         6.1704 
  12   0.0000       0.253702         6.9036 
  13   0.0000       0.253705         6.9037 
  14   0.0000       0.314171         8.5490 
  15   0.0000       0.356313         9.6958 
  16   0.0000       0.356325         9.6961 
  17   0.0000       0.364450         9.9172 
  18   0.0000       0.376074        10.2335 
  19   0.0000       0.384720        10.4688 
  20   0.0000       0.384724        10.4689 
  21   0.0000       0.406458        11.0603 
  22   0.0000       0.406466        11.0605 
  23   0.0000       0.530836        14.4448 
  24   0.0000       0.556223        15.1356 
  25   0.0000       0.556231        15.1358 
  26   0.0000       0.584280        15.8991 
  27   0.0000       0.782801        21.3011 
  28   0.0000       0.794052        21.6072 
  29   0.0000       0.794056        21.6074 
  30   0.0000       0.873505        23.7693 
  31   0.0000       0.873509        23.7694 
  32   0.0000       0.993013        27.0213 
  33   0.0000       1.149732        31.2858 
  34   0.0000       1.149746        31.2862 
  35   0.0000       1.636563        44.5332 
  36   0.0000       1.729983        47.0752 
  37   0.0000       1.748674        47.5838 
  38   0.0000       1.748727        47.5853 
  39   0.0000       1.773478        48.2588 
  40   0.0000       1.930743        52.5382 
  41   0.0000       1.930786        52.5393 
  42   0.0000       2.199500        59.8514 
  43   0.0000       2.284231        62.1571 
  44   0.0000       2.284316        62.1594 
  45   0.0000       2.289479        62.2999 
  46   0.0000       2.593747        70.5794 
  47   0.0000       2.593760        70.5798 
  48   0.0000       2.722596        74.0856 
  49   0.0000       2.722656        74.0872 
  50   0.0000       2.864706        77.9526 
  51   0.0000       3.007479        81.8377 
  52   0.0000       3.158995        85.9606 
  53   0.0000       3.159059        85.9624 
  54   0.0000       3.284157        89.3664 
  55   0.0000       3.284187        89.3673 
  56   0.0000       3.399968        92.5178 
  57   0.0000       3.461692        94.1974 
  58   0.0000       3.677921       100.0813 
  59   0.0000       3.677966       100.0825 
  60   0.0000       4.429290       120.5271 
  61   0.0000       4.429497       120.5327 
  62   0.0000       4.498835       122.4195 
  63   0.0000      22.188159       603.7705 

                 SPIN DOWN ORBITALS
  NO   OCC          E(Eh)            E(eV) 
   0   1.0000     -10.280881      -279.7570 
   1   1.0000      -0.775725       -21.1086 
   2   1.0000      -0.488770       -13.3001 
   3   1.0000      -0.488743       -13.2994 
   4   0.0000      -0.020052        -0.5457 
   5   0.0000       0.084868         2.3094 
   6   0.0000       0.166402         4.5280 
   7   0.0000       0.166403         4.5281 
   8   0.0000       0.200318         5.4509 
   9   0.0000       0.200323         5.4511 
  10   0.0000       0.225925         6.1477 
  11   0.0000       0.242360         6.5949 
  12   0.0000       0.258410         7.0317 
  13   0.0000       0.258410         7.0317 
  14   0.0000       0.325148         8.8477 
  15   0.0000       0.369468        10.0537 
  16   0.0000       0.369473        10.0539 
  17   0.0000       0.373841        10.1727 
  18   0.0000       0.376030        10.2323 
  19   0.0000       0.392173        10.6716 
  20   0.0000       0.392174        10.6716 
  21   0.0000       0.415872        11.3165 
  22   0.0000       0.415873        11.3165 
  23   0.0000       0.559399        15.2220 
  24   0.0000       0.559407        15.2222 
  25   0.0000       0.563536        15.3346 
  26   0.0000       0.595492        16.2042 
  27   0.0000       0.791501        21.5378 
  28   0.0000       0.805241        21.9117 
  29   0.0000       0.805242        21.9118 
  30   0.0000       0.896785        24.4028 
  31   0.0000       0.896793        24.4030 
  32   0.0000       1.013440        27.5771 
  33   0.0000       1.158830        31.5334 
  34   0.0000       1.158843        31.5337 
  35   0.0000       1.703162        46.3454 
  36   0.0000       1.731022        47.1035 
  37   0.0000       1.757634        47.8277 
  38   0.0000       1.757700        47.8295 
  39   0.0000       1.789072        48.6831 
  40   0.0000       1.946966        52.9796 
  41   0.0000       1.947014        52.9809 
  42   0.0000       2.204562        59.9892 
  43   0.0000       2.295834        62.4728 
  44   0.0000       2.295858        62.4735 
  45   0.0000       2.303170        62.6724 
  46   0.0000       2.598875        70.7190 
  47   0.0000       2.598898        70.7196 
  48   0.0000       2.744766        74.6889 
  49   0.0000       2.744799        74.6898 
  50   0.0000       2.890385        78.6514 
  51   0.0000       3.053885        83.1004 
  52   0.0000       3.207997        87.2940 
  53   0.0000       3.208044        87.2953 
  54   0.0000       3.320124        90.3452 
  55   0.0000       3.320174        90.3465 
  56   0.0000       3.419150        93.0398 
  57   0.0000       3.496245        95.1377 
  58   0.0000       3.721444       101.2656 
  59   0.0000       3.721483       101.2667 
  60   0.0000       4.451195       121.1232 
  61   0.0000       4.451326       121.1267 
  62   0.0000       4.524229       123.1105 
  63   0.0000      22.208300       604.3186 

                    ********************************
                    * MULLIKEN POPULATION ANALYSIS *
                    ********************************

--------------------------------------------
MULLIKEN ATOMIC CHARGES AND SPIN POPULATIONS
--------------------------------------------
   0 C :   -0.698562    0.881708
   1 H :    0.232548    0.039382
   2 H :    0.233007    0.039455
   3 H :    0.233007    0.039454
Sum of atomic charges         :   -0.0000000
Sum of atomic spin populations:    1.0000000

-----------------------------------------------------
MULLIKEN REDUCED ORBITAL CHARGES AND SPIN POPULATIONS
-----------------------------------------------------
CHARGE
  0 C s       :     3.353629  s :     3.353629
      pz      :     0.939353  p :     3.298813
      px      :     1.179657
      py      :     1.179803
      dz2     :     0.000999  d :     0.045223
      dxz     :     0.013438
      dyz     :     0.013463
      dx2y2   :     0.008649
      dxy     :     0.008674
      f0      :     0.000432  f :     0.000897
      f+1     :     0.000054
      f-1     :     0.000053
      f+2     :    -0.000100
      f-2     :    -0.000095
      f+3     :     0.000553
      f-3     :     0.000000
  1 H s       :     0.721413  s :     0.721413
      pz      :     0.022711  p :     0.046039
      px      :     0.020168
      py      :     0.003160
  2 H s       :     0.721088  s :     0.721088
      pz      :     0.022622  p :     0.045905
      px      :     0.007404
      py      :     0.015878
  3 H s       :     0.721089  s :     0.721089
      pz      :     0.022622  p :     0.045903
      px      :     0.007404
      py      :     0.015877

SPIN
  0 C s       :     0.009745  s :     0.009745
      pz      :     0.871128  p :     0.881284
      px      :     0.005089
      py      :     0.005067
      dz2     :    -0.001553  d :    -0.008482
      dxz     :    -0.003297
      dyz     :    -0.003299
      dx2y2   :    -0.000167
      dxy     :    -0.000165
      f0      :    -0.000405  f :    -0.000840
      f+1     :    -0.000130
      f-1     :    -0.000130
      f+2     :    -0.000018
      f-2     :    -0.000018
      f+3     :    -0.000139
      f-3     :     0.000000
  1 H s       :     0.015395  s :     0.015395
      pz      :     0.020210  p :     0.023988
      px      :     0.000740
      py      :     0.003038
  2 H s       :     0.015533  s :     0.015533
      pz      :     0.020140  p :     0.023922
      px      :     0.002464
      py      :     0.001317
  3 H s       :     0.015532  s :     0.015532
      pz      :     0.020140  p :     0.023922
      px      :     0.002464
      py      :     0.001317


                     *******************************
                     * LOEWDIN POPULATION ANALYSIS *
                     *******************************

-------------------------------------------
LOEWDIN ATOMIC CHARGES AND SPIN POPULATIONS
-------------------------------------------
   0 C :    0.057580    0.834153
   1 H :   -0.019220    0.055283
   2 H :   -0.019180    0.055282
   3 H :   -0.019180    0.055282

----------------------------------------------------
LOEWDIN REDUCED ORBITAL CHARGES AND SPIN POPULATIONS
----------------------------------------------------
CHARGE
  0 C s       :     2.910953  s :     2.910953
      pz      :     0.772964  p :     2.902216
      px      :     1.064634
      py      :     1.064618
      dz2     :     0.006482  d :     0.118734
      dxz     :     0.022112
      dyz     :     0.022119
      dx2y2   :     0.034008
      dxy     :     0.034013
      f0      :     0.001328  f :     0.010516
      f+1     :     0.000104
      f-1     :     0.000104
      f+2     :     0.003071
      f-2     :     0.003074
      f+3     :     0.002835
      f-3     :     0.000000
  1 H s       :     0.756095  s :     0.756095
      pz      :     0.069027  p :     0.263125
      px      :     0.122178
      py      :     0.071919
  2 H s       :     0.756076  s :     0.756076
      pz      :     0.069007  p :     0.263105
      px      :     0.084474
      py      :     0.109624
  3 H s       :     0.756075  s :     0.756075
      pz      :     0.069007  p :     0.263105
      px      :     0.084474
      py      :     0.109624

SPIN
  0 C s       :     0.087698  s :     0.087698
      pz      :     0.719385  p :     0.755352
      px      :     0.017988
      py      :     0.017980
      dz2     :     0.000594  d :    -0.008457
      dxz     :    -0.002790
      dyz     :    -0.002791
      dx2y2   :    -0.001738
      dxy     :    -0.001733
      f0      :    -0.000225  f :    -0.000440
      f+1     :    -0.000084
      f-1     :    -0.000083
      f+2     :    -0.000158
      f-2     :    -0.000158
      f+3     :     0.000268
      f-3     :     0.000000
  1 H s       :    -0.003942  s :    -0.003942
      pz      :     0.056878  p :     0.059225
      px      :     0.003098
      py      :    -0.000751
  2 H s       :    -0.003944  s :    -0.003944
      pz      :     0.056878  p :     0.059226
      px      :     0.000212
      py      :     0.002137
  3 H s       :    -0.003944  s :    -0.003944
      pz      :     0.056878  p :     0.059226
      px      :     0.000212
      py      :     0.002137


                      *****************************
                      * MAYER POPULATION ANALYSIS *
                      *****************************

  NA   - Mulliken gross atomic population
  ZA   - Total nuclear charge
  QA   - Mulliken gross atomic charge
  VA   - Mayer's total valence
  BVA  - Mayer's bonded valence
  FA   - Mayer's free valence

  ATOM       NA         ZA         QA         VA         BVA        FA
  0 C      6.6986     6.0000    -0.6986     3.7986     2.9986     0.7999
  1 H      0.7675     1.0000     0.2325     1.0127     1.0114     0.0014
  2 H      0.7670     1.0000     0.2330     1.0121     1.0108     0.0013
  3 H      0.7670     1.0000     0.2330     1.0121     1.0108     0.0013

  Mayer bond orders larger than 0.100000
B(  0-C ,  1-H ) :   0.9999 B(  0-C ,  2-H ) :   0.9994 B(  0-C ,  3-H ) :   0.9994 


-------
TIMINGS
-------

Total SCF time: 0 days 0 hours 0 min 7 sec 

Total time                  ....       7.621 sec
Sum of individual times     ....       6.970 sec  ( 91.5%)

Fock matrix formation       ....       5.849 sec  ( 76.7%)
  Split-RI-J                ....       0.815 sec  ( 13.9% of F)
  Chain of spheres X        ....       1.360 sec  ( 23.2% of F)
  XC integration            ....       1.125 sec  ( 19.2% of F)
    Basis function eval.    ....       0.052 sec  (  4.7% of XC)
    Density eval.           ....       0.051 sec  (  4.5% of XC)
    XC-Functional eval.     ....       0.053 sec  (  4.7% of XC)
    XC-Potential eval.      ....       0.074 sec  (  6.6% of XC)
Diagonalization             ....       0.209 sec  (  2.7%)
Density matrix formation    ....       0.011 sec  (  0.1%)
Population analysis         ....       0.117 sec  (  1.5%)
Initial guess               ....       0.090 sec  (  1.2%)
Orbital Transformation      ....       0.000 sec  (  0.0%)
Orbital Orthonormalization  ....       0.000 sec  (  0.0%)
DIIS solution               ....       0.312 sec  (  4.1%)
Grid generation             ....       0.381 sec  (  5.0%)

Maximum memory used throughout the entire SCF-calculation: 58.5 MB


-------------------------------------------------------------------------------
                          DFT DISPERSION CORRECTION                            
                                                                               
                              DFTD3 V3.1  Rev 1                                
                              USING zero damping                               
-------------------------------------------------------------------------------
The omegaB97X-D3 functional is recognized. Fit by Chai et al.
Active option DFTDOPT                   ...         3   

molecular C6(AA) [au] = 106.960060 


            DFT-D V3
 parameters
 s6 scaling factor         :     1.0000 
 rs6 scaling factor        :     1.2810 
 s8 scaling factor         :     1.0000 
 rs8 scaling factor        :     1.0940 
 Damping factor alpha6     :    14.0000 
 Damping factor alpha8     :    16.0000 
 ad hoc parameters k1-k3   :    16.0000     1.3333    -4.0000 

 Edisp/kcal,au: -0.006108328099  -0.000009734239 
 E6   /kcal   :  -0.000951157 
 E8   /kcal   :  -0.005157171 
 % E8         :  84.428515292 

-------------------------   ----------------
Dispersion correction           -0.000009734
-------------------------   ----------------


-------------------------   --------------------
FINAL SINGLE POINT ENERGY       -39.821925061670
-------------------------   --------------------



           ************************************************************
           *        Program running with 18 parallel MPI-processes    *
           *              working on a common directory               *
           ************************************************************
------------------------------------------------------------------------------
                         ORCA SCF GRADIENT CALCULATION
------------------------------------------------------------------------------

 ... reading COSX grid (gridx3)
Gradient of the Kohn-Sham DFT energy:
Kohn-Sham wavefunction type      ... UKS
Hartree-Fock exchange scaling    ...    0.196
Number of operators              ...    2
Number of atoms                  ...    4
Basis set dimensions             ...   64
Integral neglect threshold       ... 2.5e-11
Integral primitive cutoff        ... 2.5e-12
SHARK Integral package           ... ON

Nuc. rep. gradient       (SHARK) ... done (  0.0 sec)
HCore & Overlap gradient (SHARK) ... done (  0.0 sec)
RI-J gradient            (SHARK) ... done (  0.1 sec)
COSX-gradient                    ... done (  0.1 sec)
Exchange-correlation gradient    ... done
Dispersion correction            ... done

------------------
CARTESIAN GRADIENT
------------------

WARNING: THERE ARE 3 CONSTRAINED CARTESIAN COORDINATES
   1   C   :    0.000039726    0.000000096    0.047643820
   2   H   :   -0.015715553    0.000000018   -0.015885789
   3   H   :    0.007808981   -0.013675263   -0.015896173
   4   H   :    0.007808967    0.013675262   -0.015896195

Difference to translation invariance:
           :   -0.0000578786    0.0000001131   -0.0000343368

Difference to rotation invariance:
           :    0.0000000489    0.0000574759    0.0000000121

Norm of the cartesian gradient     ...    0.0614054975
RMS gradient                       ...    0.0177262403
MAX gradient                       ...    0.0476438196

-------
TIMINGS
-------

Total SCF gradient time            ...        0.571 sec

One electron gradient       ....       0.006 sec  (  1.1%)
RI-J Coulomb gradient       ....       0.110 sec  ( 19.2%)
COSX gradient               ....       0.112 sec  ( 19.7%)
XC gradient                 ....       0.063 sec  ( 11.1%)

Maximum memory used throughout the entire SCFGRAD-calculation: 33.6 MB
------------------------------------------------------------------------------
                         ORCA GEOMETRY RELAXATION STEP
------------------------------------------------------------------------------

Reading the OPT-File                    .... done
Getting information on internals        .... done
Copying old internal coords+grads       .... done
Making the new internal coordinates     .... (new redundants).... done
Validating the new internal coordinates .... (new redundants).... done
Calculating the B-matrix                .... done
Calculating the G,G- and P matrices     .... done
Transforming gradient to internals      .... done
Projecting the internal gradient        .... done
Number of atoms                         ....   4
Number of internal coordinates          ....   7
Current Energy                          ....   -39.821925062 Eh
Current gradient norm                   ....     0.061405498 Eh/bohr
Maximum allowed component of the step   ....  0.300
Current trust radius                    ....  0.300
Evaluating the initial hessian          ....  (Almloef) done
Projecting the Hessian                  .... done
Forming the augmented Hessian           .... done
Diagonalizing the augmented Hessian     .... done
Last element of RFO vector              ....  0.999250260
Lowest eigenvalues of augmented Hessian:
 -0.000561641  0.373574723  0.373574723  0.374136365 1000.000000000
Length of the computed step             ....  0.038744904
The final length of the internal step   ....  0.038744904
Converting the step to cartesian space:
 Initial RMS(Int)=    0.0146441972
Transforming coordinates:
 Iter   0:  RMS(Cart)=    0.0105386677 RMS(Int)=    0.0146441973
 Iter   1:  RMS(Cart)=    0.0000000001 RMS(Int)=    0.0000000003
Imposing constraints:
 Iter   0:  RMS(Cart)=    0.0000000007 RMS(Int)=    0.0000000017
CONVERGED
done
Storing new coordinates                 .... done

                                .--------------------.
          ----------------------|Geometry convergence|-------------------------
          Item                value                   Tolerance       Converged
          ---------------------------------------------------------------------
          RMS gradient        0.0054789267            0.0001000000      NO
          MAX gradient        0.0083832976            0.0003000000      NO
          RMS step            0.0146441972            0.0020000000      NO
          MAX step            0.0224070643            0.0040000000      NO
          ........................................................
          Max(Bonds)      0.0119      Max(Angles)    0.00
          Max(Dihed)        0.00      Max(Improp)    0.00
          ---------------------------------------------------------------------

The optimization has not yet converged - more geometry cycles are needed


    ---------------------------------------------------------------------------
                         Redundant Internal Coordinates
                            (Angstroem and degrees)

        Definition                    Value    dE/dq     Step     New-Value
    ----------------------------------------------------------------------------
     1. B(H   1,C   0)                1.0800 -0.008341  0.0118    1.0918   
     2. B(H   2,C   0)                1.0800 -0.008383  0.0119    1.0919   
     3. B(H   3,C   0)                1.0800 -0.008383  0.0119    1.0919   
     4. A(H   2,C   0,H   3)          106.00 -0.027948   -0.00    106.00 C 
     5. A(H   1,C   0,H   2)          106.00 -0.011240    0.00    106.00 C 
     6. A(H   1,C   0,H   3)          106.00 -0.011240    0.00    106.00 C 
     7. I(H   1,H   3,H   2,C   0)     62.74  0.029750   -0.00     62.74   
    ----------------------------------------------------------------------------

         *************************************************************
         *                GEOMETRY OPTIMIZATION CYCLE   2            *
         *************************************************************
---------------------------------
CARTESIAN COORDINATES (ANGSTROEM)
---------------------------------
  C      0.000017   -0.000000    0.003434
  H      1.006852   -0.000000   -0.418829
  H     -0.503434    0.871996   -0.418836
  H     -0.503434   -0.871996   -0.418836

----------------------------
CARTESIAN COORDINATES (A.U.)
----------------------------
  NO LB      ZA    FRAG     MASS         X           Y           Z
   0 C     6.0000    0    12.011    0.000032   -0.000000    0.006488
   1 H     1.0000    0     1.008    1.902674   -0.000000   -0.791472
   2 H     1.0000    0     1.008   -0.951353    1.647834   -0.791486
   3 H     1.0000    0     1.008   -0.951353   -1.647834   -0.791486

--------------------------------
INTERNAL COORDINATES (ANGSTROEM)
--------------------------------
 C      0   0   0     0.000000000000     0.00000000     0.00000000
 H      1   0   0     1.091797473972     0.00000000     0.00000000
 H      1   2   0     1.091857307745   106.00000005     0.00000000
 H      1   2   3     1.091857216992   106.00000005   112.36614309

---------------------------
INTERNAL COORDINATES (A.U.)
---------------------------
 C      0   0   0     0.000000000000     0.00000000     0.00000000
 H      1   0   0     2.063198219515     0.00000000     0.00000000
 H      1   2   0     2.063311288958   106.00000005     0.00000000
 H      1   2   3     2.063311117460   106.00000005   112.36614309



           ************************************************************
           *        Program running with 18 parallel MPI-processes    *
           *              working on a common directory               *
           ************************************************************
------------------------------------------------------------------------------
                   ___                                                        
                  /   \      - P O W E R E D   B Y -                         
                 /     \                                                     
                 |  |  |   _    _      __       _____    __    __             
                 |  |  |  | |  | |    /  \     |  _  \  |  |  /  |          
                  \  \/   | |  | |   /    \    | | | |  |  | /  /          
                 / \  \   | |__| |  /  /\  \   | |_| |  |  |/  /          
                |  |  |   |  __  | /  /__\  \  |    /   |      \           
                |  |  |   | |  | | |   __   |  |    \   |  |\   \          
                \     /   | |  | | |  |  |  |  | |\  \  |  | \   \       
                 \___/    |_|  |_| |__|  |__|  |_| \__\ |__|  \__/        
                                                                              
                      - O R C A' S   B I G   F R I E N D -                    
                                      &                                       
                       - I N T E G R A L  F E E D E R -                       
                                                                              
 v1 FN, 2020, v2 2021                                                         
------------------------------------------------------------------------------


Reading SHARK input file /beegfs/scratch/ispackman/PFAS_EPR_calcs/benchmark/JChemEd_CF3_radical/CH3_radical_106.0_degrees_IN-PROGRESS/CH3_radical_106.0_degrees.SHARKINP.tmp ... ok
----------------------
SHARK INTEGRAL PACKAGE
----------------------

Number of atoms                             ...      4
Number of basis functions                   ...     64
Number of shells                            ...     28
Maximum angular momentum                    ...      3
Integral batch strategy                     ... SHARK/LIBINT Hybrid
RI-J (if used) integral strategy            ... SPLIT-RIJ (Revised 2003 algorithm where possible)
Printlevel                                  ...      1
Contraction scheme used                     ... SEGMENTED contraction
Coulomb Range Separation                    ... NOT USED
Exchange Range Separation                   ... Long Range
   Mu parameter                             ...  0.250000
   Scaling (regular/separated)              ...  0.195728  0.804272
Finite Nucleus Model                        ... NOT USED
Auxiliary Coulomb fitting basis             ... AVAILABLE
   # of basis functions in Aux-J            ...     82
   # of shells in Aux-J                     ...     30
   Maximum angular momentum in Aux-J        ...      4
Auxiliary J/K fitting basis                 ... NOT available
Auxiliary Correlation fitting basis         ... NOT available
Auxiliary 'external' fitting basis          ... NOT available
Integral threshold                          ...     2.500000e-11
Primitive cut-off                           ...     2.500000e-12
Primitive pair pre-selection threshold      ...     2.500000e-12

Calculating pre-screening integrals         ... done (  0.0 sec) Dimension = 28
Organizing shell pair data                  ... done (  0.0 sec)
Shell pair information
Total number of shell pairs                 ...       406
Shell pairs after pre-screening             ...       406
Total number of primitive shell pairs       ...       977
Primitive shell pairs kept                  ...       944
          la=0 lb=0:    120 shell pairs
          la=1 lb=0:    135 shell pairs
          la=1 lb=1:     45 shell pairs
          la=2 lb=0:     45 shell pairs
          la=2 lb=1:     27 shell pairs
          la=2 lb=2:      6 shell pairs
          la=3 lb=0:     15 shell pairs
          la=3 lb=1:      9 shell pairs
          la=3 lb=2:      3 shell pairs
          la=3 lb=3:      1 shell pairs

Calculating one electron integrals          ... done (  0.0 sec)
Calculating RI/J V-Matrix + Cholesky decomp.... done (  0.0 sec)
Calculating Nuclear repulsion               ... done (  0.0 sec) ENN=      9.634303495856 Eh

SHARK setup successfully completed in   0.2 seconds

Maximum memory used throughout the entire GTOINT-calculation: 14.0 MB


           ************************************************************
           *        Program running with 18 parallel MPI-processes    *
           *              working on a common directory               *
           ************************************************************

Diagonalization of the overlap matrix:
Smallest eigenvalue                        ... 5.131e-05
Time for diagonalization                   ...    0.002 sec
Threshold for overlap eigenvalues          ... 1.000e-08
Number of eigenvalues below threshold      ... 0
Time for construction of square roots      ...    0.010 sec
Total time needed                          ...    0.013 sec

-------------------
DFT GRID GENERATION
-------------------

General Integration Accuracy     IntAcc      ... 4.388
Radial Grid Type                 RadialGrid  ... OptM3 with GC (2021)
Angular Grid (max. ang.)         AngularGrid ... 4 (Lebedev-302)
Angular grid pruning method      GridPruning ... 4 (adaptive)
Weight generation scheme         WeightScheme... Becke
Basis function cutoff            BFCut       ... 1.0000e-11
Integration weight cutoff        WCut        ... 1.0000e-14
Angular grids for H and He will be reduced by one unit
Partially contracted basis set               ... off
Rotationally invariant grid construction     ... off

Total number of grid points                  ...    17052
Total number of batches                      ...      269
Average number of points per batch           ...       63
Average number of grid points per atom       ...     4263
Time for grid setup =    0.094 sec

--------------------
COSX GRID GENERATION
--------------------

GRIDX 1
-------
General Integration Accuracy     IntAcc      ... 3.816
Radial Grid Type                 RadialGrid  ... OptM3 with GC (2021)
Angular Grid (max. ang.)         AngularGrid ... 1 (Lebedev-50)
Angular grid pruning method      GridPruning ... 4 (adaptive)
Weight generation scheme         WeightScheme... Becke
Basis function cutoff            BFCut       ... 1.0000e-11
Integration weight cutoff        WCut        ... 1.0000e-14
Angular grids for H and He will be reduced by one unit
Partially contracted basis set               ... on
Rotationally invariant grid construction     ... off

Total number of grid points                  ...     2151
Total number of batches                      ...       36
Average number of points per batch           ...       59
Average number of grid points per atom       ...      538
UseSFitting                                  ... on

GRIDX 2
-------
General Integration Accuracy     IntAcc      ... 4.020
Radial Grid Type                 RadialGrid  ... OptM3 with GC (2021)
Angular Grid (max. ang.)         AngularGrid ... 2 (Lebedev-110)
Angular grid pruning method      GridPruning ... 4 (adaptive)
Weight generation scheme         WeightScheme... Becke
Basis function cutoff            BFCut       ... 1.0000e-11
Integration weight cutoff        WCut        ... 1.0000e-14
Angular grids for H and He will be reduced by one unit
Partially contracted basis set               ... on
Rotationally invariant grid construction     ... off

Total number of grid points                  ...     5039
Total number of batches                      ...       82
Average number of points per batch           ...       61
Average number of grid points per atom       ...     1260
UseSFitting                                  ... on

GRIDX 3
-------
General Integration Accuracy     IntAcc      ... 4.338
Radial Grid Type                 RadialGrid  ... OptM3 with GC (2021)
Angular Grid (max. ang.)         AngularGrid ... 3 (Lebedev-194)
Angular grid pruning method      GridPruning ... 4 (adaptive)
Weight generation scheme         WeightScheme... Becke
Basis function cutoff            BFCut       ... 1.0000e-11
Integration weight cutoff        WCut        ... 1.0000e-14
Angular grids for H and He will be reduced by one unit
Partially contracted basis set               ... on
Rotationally invariant grid construction     ... off

Total number of grid points                  ...    11709
Total number of batches                      ...      186
Average number of points per batch           ...       62
Average number of grid points per atom       ...     2927
UseSFitting                                  ... on

Time for X-Grid setup             =    0.219 sec

--------------
SCF ITERATIONS
--------------
ITER       Energy         Delta-E        Max-DP      RMS-DP      [F,P]     Damp
               ***  Starting incremental Fock matrix formation  ***
  0    -39.8221146082   0.000000000000 0.00567833  0.00010175  0.0029893 0.7000
  1    -39.8221405048  -0.000025896663 0.00500997  0.00008895  0.0020272 0.7000
                               ***Turning on DIIS***
  2    -39.8221578422  -0.000017337374 0.01312321  0.00023142  0.0013731 0.0000
  3    -39.8221959815  -0.000038139323 0.00332124  0.00005937  0.0005725 0.0000
               *** Restarting incremental Fock matrix formation ***
                                   *** Resetting DIIS ***
  4    -39.8221977609  -0.000001779339 0.00031303  0.00001052  0.0002499 0.0000
  5    -39.8221980590  -0.000000298157 0.00030484  0.00000606  0.0001538 0.0000
  6    -39.8221981785  -0.000000119530 0.00006277  0.00000241  0.0000300 0.0000
  7    -39.8221981898  -0.000000011281 0.00002618  0.00000084  0.0000082 0.0000
                 **** Energy Check signals convergence ****

               *****************************************************
               *                     SUCCESS                       *
               *           SCF CONVERGED AFTER   8 CYCLES          *
               *****************************************************

Old exchange energy                            =     -2.170651955 Eh
New exchange energy                            =     -2.170656097 Eh
Exchange energy change after final integration =     -0.000004143 Eh
Total energy after final integration           =    -39.822202333 Eh
Final COS-X integration done in                =     0.119 sec
Total Energy       :          -39.82220233 Eh           -1083.61722 eV
  Last Energy change         ...   -7.9974e-10  Tolerance :   1.0000e-08
  Last MAX-Density change    ...    0.0000e+00  Tolerance :   1.0000e-07
             **** THE GBW FILE WAS UPDATED (/beegfs/scratch/ispackman/PFAS_EPR_calcs/benchmark/JChemEd_CF3_radical/CH3_radical_106.0_degrees_IN-PROGRESS/CH3_radical_106.0_degrees.gbw) ****
             **** DENSITY /beegfs/scratch/ispackman/PFAS_EPR_calcs/benchmark/JChemEd_CF3_radical/CH3_radical_106.0_degrees_IN-PROGRESS/CH3_radical_106.0_degrees.scfp WAS UPDATED ****
             **** ENERGY FILE WAS UPDATED (/beegfs/scratch/ispackman/PFAS_EPR_calcs/benchmark/JChemEd_CF3_radical/CH3_radical_106.0_degrees_IN-PROGRESS/CH3_radical_106.0_degrees.en.tmp) ****
----------------------
UHF SPIN CONTAMINATION
----------------------

Warning: in a DFT calculation there is little theoretical justification to 
         calculate <S**2> as in Hartree-Fock theory. We will do it anyways
         but you should keep in mind that the values have only limited relevance

Expectation value of <S**2>     :     0.753015
Ideal value S*(S+1) for S=0.5   :     0.750000
Deviation                       :     0.003015

             **** THE GBW FILE WAS UPDATED (/beegfs/scratch/ispackman/PFAS_EPR_calcs/benchmark/JChemEd_CF3_radical/CH3_radical_106.0_degrees_IN-PROGRESS/CH3_radical_106.0_degrees.gbw) ****
             **** DENSITY /beegfs/scratch/ispackman/PFAS_EPR_calcs/benchmark/JChemEd_CF3_radical/CH3_radical_106.0_degrees_IN-PROGRESS/CH3_radical_106.0_degrees.scfp WAS UPDATED ****
Total SCF time: 0 days 0 hours 0 min 5 sec 

Maximum memory used throughout the entire SCF-calculation: 58.5 MB


-------------------------------------------------------------------------------
                          DFT DISPERSION CORRECTION                            
                                                                               
                              DFTD3 V3.1  Rev 1                                
                              USING zero damping                               
-------------------------------------------------------------------------------
-------------------------   ----------------
Dispersion correction           -0.000010622
-------------------------   ----------------


-------------------------   --------------------
FINAL SINGLE POINT ENERGY       -39.822212955357
-------------------------   --------------------



           ************************************************************
           *        Program running with 18 parallel MPI-processes    *
           *              working on a common directory               *
           ************************************************************
------------------------------------------------------------------------------
                         ORCA SCF GRADIENT CALCULATION
------------------------------------------------------------------------------

 ... reading COSX grid (gridx3)
Gradient of the Kohn-Sham DFT energy:
Kohn-Sham wavefunction type      ... UKS
Hartree-Fock exchange scaling    ...    0.196
Number of operators              ...    2
Number of atoms                  ...    4
Basis set dimensions             ...   64
Integral neglect threshold       ... 2.5e-11
Integral primitive cutoff        ... 2.5e-12
SHARK Integral package           ... ON

Nuc. rep. gradient       (SHARK) ... done (  0.0 sec)
HCore & Overlap gradient (SHARK) ... done (  0.0 sec)
RI-J gradient            (SHARK) ... done (  0.1 sec)
COSX-gradient                    ... done (  0.1 sec)
Exchange-correlation gradient    ... done
Dispersion correction            ... done

------------------
CARTESIAN GRADIENT
------------------

WARNING: THERE ARE 3 CONSTRAINED CARTESIAN COORDINATES
   1   C   :    0.000078733   -0.000000111    0.055295390
   2   H   :   -0.008060382   -0.000000002   -0.018429103
   3   H   :    0.003960872   -0.007009377   -0.018452815
   4   H   :    0.003960902    0.007009442   -0.018452771

Difference to translation invariance:
           :   -0.0000598752   -0.0000000490   -0.0000392989

Difference to rotation invariance:
           :   -0.0000000270    0.0000626456   -0.0000000174

Norm of the cartesian gradient     ...    0.0653669640
RMS gradient                       ...    0.0188698171
MAX gradient                       ...    0.0552953899

-------
TIMINGS
-------

Total SCF gradient time            ...        0.613 sec

One electron gradient       ....       0.007 sec  (  1.2%)
RI-J Coulomb gradient       ....       0.132 sec  ( 21.5%)
COSX gradient               ....       0.117 sec  ( 19.1%)
XC gradient                 ....       0.070 sec  ( 11.4%)

Maximum memory used throughout the entire SCFGRAD-calculation: 33.6 MB
------------------------------------------------------------------------------
                         ORCA GEOMETRY RELAXATION STEP
------------------------------------------------------------------------------

Reading the OPT-File                    .... done
Getting information on internals        .... done
Copying old internal coords+grads       .... done
Making the new internal coordinates     .... (new redundants).... done
Validating the new internal coordinates .... (new redundants).... done
Calculating the B-matrix                .... done
Calculating the G,G- and P matrices     .... done
Transforming gradient to internals      .... done
Projecting the internal gradient        .... done
Number of atoms                         ....   4
Number of internal coordinates          ....   7
Current Energy                          ....   -39.822212955 Eh
Current gradient norm                   ....     0.065366964 Eh/bohr
Maximum allowed component of the step   ....  0.300
Current trust radius                    ....  0.300
Updating the Hessian (BFGS)             .... done
Forming the augmented Hessian           .... done
Diagonalizing the augmented Hessian     .... done
Last element of RFO vector              ....  0.999998980
Lowest eigenvalues of augmented Hessian:
 -0.000000736  0.360837546  0.373574723  0.373574917 999.999999982
Length of the computed step             ....  0.001428028
The final length of the internal step   ....  0.001428028
Converting the step to cartesian space:
 Initial RMS(Int)=    0.0005397439
Transforming coordinates:
 Iter   0:  RMS(Cart)=    0.0003884259 RMS(Int)=    0.0005397439
 Iter   1:  RMS(Cart)=    0.0000000000 RMS(Int)=    0.0000000000
Imposing constraints:
 Iter   0:  RMS(Cart)=    0.0000000003 RMS(Int)=    0.0000000011
CONVERGED
done
Storing new coordinates                 .... done

                                .--------------------.
          ----------------------|Geometry convergence|-------------------------
          Item                value                   Tolerance       Converged
          ---------------------------------------------------------------------
          Energy change      -0.0002878937            0.0000050000      NO
          RMS gradient        0.0001947599            0.0001000000      NO
          MAX gradient        0.0002980428            0.0003000000      YES
          RMS step            0.0005397439            0.0020000000      YES
          MAX step            0.0008259813            0.0040000000      YES
          ........................................................
          Max(Bonds)      0.0004      Max(Angles)    0.00
          Max(Dihed)        0.00      Max(Improp)    0.00
          ---------------------------------------------------------------------

       The step convergence is overachieved with 
       reasonable convergence on the gradient
       Convergence will therefore be signaled now


                    ***********************HURRAY********************
                    ***        THE OPTIMIZATION HAS CONVERGED     ***
                    *************************************************


    ---------------------------------------------------------------------------
                         Redundant Internal Coordinates

                          --- Optimized Parameters ---  
                            (Angstroem and degrees)

        Definition                    OldVal   dE/dq     Step     FinalVal
    ----------------------------------------------------------------------------
     1. B(H   1,C   0)                1.0918 -0.000298  0.0004    1.0922   
     2. B(H   2,C   0)                1.0919 -0.000297  0.0004    1.0923   
     3. B(H   3,C   0)                1.0919 -0.000297  0.0004    1.0923   
     4. A(H   2,C   0,H   3)          106.00 -0.027412    0.00    106.00 C 
     5. A(H   1,C   0,H   2)          106.00 -0.011023    0.00    106.00 C 
     6. A(H   1,C   0,H   3)          106.00 -0.011023    0.00    106.00 C 
     7. I(H   1,H   3,H   2,C   0)     62.74  0.029178   -0.00     62.74   
    ----------------------------------------------------------------------------
                 *******************************************************
                 *** FINAL ENERGY EVALUATION AT THE STATIONARY POINT ***
                 ***               (AFTER    2 CYCLES)               ***
                 *******************************************************
---------------------------------
CARTESIAN COORDINATES (ANGSTROEM)
---------------------------------
  C      0.000017    0.000000    0.003560
  H      1.007255    0.000000   -0.418871
  H     -0.503636    0.872344   -0.418878
  H     -0.503636   -0.872344   -0.418878

----------------------------
CARTESIAN COORDINATES (A.U.)
----------------------------
  NO LB      ZA    FRAG     MASS         X           Y           Z
   0 C     6.0000    0    12.011    0.000032    0.000000    0.006728
   1 H     1.0000    0     1.008    1.903435    0.000000   -0.791552
   2 H     1.0000    0     1.008   -0.951733    1.648491   -0.791565
   3 H     1.0000    0     1.008   -0.951734   -1.648491   -0.791565

--------------------------------
INTERNAL COORDINATES (ANGSTROEM)
--------------------------------
 C      0   0   0     0.000000000000     0.00000000     0.00000000
 H      1   0   0     1.092234564462     0.00000000     0.00000000
 H      1   2   0     1.092293125036   106.00000009     0.00000000
 H      1   2   3     1.092293184189   106.00000009   112.36614315

---------------------------
INTERNAL COORDINATES (A.U.)
---------------------------
 C      0   0   0     0.000000000000     0.00000000     0.00000000
 H      1   0   0     2.064024200835     0.00000000     0.00000000
 H      1   2   0     2.064134864283   106.00000009     0.00000000
 H      1   2   3     2.064134976066   106.00000009   112.36614315

---------------------
BASIS SET INFORMATION
---------------------
There are 2 groups of distinct atoms

 Group   1 Type C   : 12s6p3d1f contracted to 6s3p3d1f pattern {621111/411/111/1}
 Group   2 Type H   : 5s2p contracted to 3s2p pattern {311/11}

Atom   0C    basis set group =>   1
Atom   1H    basis set group =>   2
Atom   2H    basis set group =>   2
Atom   3H    basis set group =>   2
---------------------------------
AUXILIARY/J BASIS SET INFORMATION
---------------------------------
There are 2 groups of distinct atoms

 Group   1 Type C   : 12s5p4d2f1g contracted to 6s4p3d1f1g pattern {711111/2111/211/2/1}
 Group   2 Type H   : 5s2p1d contracted to 3s1p1d pattern {311/2/1}

Atom   0C    basis set group =>   1
[...]

  NA   - Mulliken gross atomic population
  ZA   - Total nuclear charge
  QA   - Mulliken gross atomic charge
  VA   - Mayer's total valence
  BVA  - Mayer's bonded valence
  FA   - Mayer's free valence

  ATOM       NA         ZA         QA         VA         BVA        FA
  0 C      6.6856     6.0000    -0.6856     3.8031     2.9973     0.8058
  1 H      0.7718     1.0000     0.2282     1.0158     1.0145     0.0012
  2 H      0.7713     1.0000     0.2287     1.0151     1.0139     0.0012
  3 H      0.7713     1.0000     0.2287     1.0151     1.0139     0.0012

  Mayer bond orders larger than 0.100000
B(  0-C ,  1-H ) :   0.9995 B(  0-C ,  2-H ) :   0.9989 B(  0-C ,  3-H ) :   0.9989 


-------
TIMINGS
-------

Total SCF time: 0 days 0 hours 0 min 4 sec 

Total time                  ....       4.584 sec
Sum of individual times     ....       4.081 sec  ( 89.0%)

Fock matrix formation       ....       3.375 sec  ( 73.6%)
  Split-RI-J                ....       0.539 sec  ( 16.0% of F)
  Chain of spheres X        ....       0.893 sec  ( 26.5% of F)
  XC integration            ....       0.669 sec  ( 19.8% of F)
    Basis function eval.    ....       0.031 sec  (  4.7% of XC)
    Density eval.           ....       0.030 sec  (  4.4% of XC)
    XC-Functional eval.     ....       0.032 sec  (  4.8% of XC)
    XC-Potential eval.      ....       0.041 sec  (  6.2% of XC)
Diagonalization             ....       0.084 sec  (  1.8%)
Density matrix formation    ....       0.006 sec  (  0.1%)
Population analysis         ....       0.164 sec  (  3.6%)
Initial guess               ....       0.006 sec  (  0.1%)
Orbital Transformation      ....       0.000 sec  (  0.0%)
Orbital Orthonormalization  ....       0.002 sec  (  0.0%)
DIIS solution               ....       0.121 sec  (  2.6%)
Grid generation             ....       0.326 sec  (  7.1%)

Maximum memory used throughout the entire SCF-calculation: 58.5 MB


-------------------------------------------------------------------------------
                          DFT DISPERSION CORRECTION                            
                                                                               
                              DFTD3 V3.1  Rev 1                                
                              USING zero damping                               
-------------------------------------------------------------------------------
The omegaB97X-D3 functional is recognized. Fit by Chai et al.
Active option DFTDOPT                   ...         3   

molecular C6(AA) [au] = 106.989949 


            DFT-D V3
 parameters
 s6 scaling factor         :     1.0000 
 rs6 scaling factor        :     1.2810 
 s8 scaling factor         :     1.0000 
 rs8 scaling factor        :     1.0940 
 Damping factor alpha6     :    14.0000 
 Damping factor alpha8     :    16.0000 
 ad hoc parameters k1-k3   :    16.0000     1.3333    -4.0000 

 Edisp/kcal,au: -0.006686896854  -0.000010656247 
 E6   /kcal   :  -0.001041378 
 E8   /kcal   :  -0.005645519 
 % E8         :  84.426591016 

-------------------------   ----------------
Dispersion correction           -0.000010656
-------------------------   ----------------


-------------------------   --------------------
FINAL SINGLE POINT ENERGY       -39.822213337636
-------------------------   --------------------

                                *** OPTIMIZATION RUN DONE ***

                            ***************************************
                            *     ORCA property calculations      *
                            ***************************************

                                    ---------------------
                                    Active property flags
                                    ---------------------
   (+) Dipole Moment


------------------------------------------------------------------------------
                       ORCA ELECTRIC PROPERTIES CALCULATION
------------------------------------------------------------------------------

Dipole Moment Calculation                       ... on
Quadrupole Moment Calculation                   ... off
Polarizability Calculation                      ... off
GBWName                                         ... /beegfs/scratch/ispackman/PFAS_EPR_calcs/benchmark/JChemEd_CF3_radical/CH3_radical_106.0_degrees_IN-PROGRESS/CH3_radical_106.0_degrees.gbw
Electron density                                ... /beegfs/scratch/ispackman/PFAS_EPR_calcs/benchmark/JChemEd_CF3_radical/CH3_radical_106.0_degrees_IN-PROGRESS/CH3_radical_106.0_degrees.scfp
The origin for moment calculation is the CENTER OF MASS  = ( 0.000023,  0.000000 -0.153833)

-------------
DIPOLE MOMENT
-------------
                                X             Y             Z
Electronic contribution:      0.00007      -0.00000       0.67781
Nuclear contribution   :     -0.00005      -0.00000      -0.94982
                        -----------------------------------------
Total Dipole Moment    :      0.00002      -0.00000      -0.27201
                        -----------------------------------------
Magnitude (a.u.)       :      0.27201
Magnitude (Debye)      :      0.69139



--------------------
Rotational spectrum 
--------------------
 
Rotational constants in cm-1:     8.578360     8.577881     5.494349 
Rotational constants in MHz : 257172.755014 257158.397265 164716.442120 

 Dipole components along the rotational axes: 
x,y,z [a.u.] :     0.000000     0.000011    -0.272010 
x,y,z [Debye]:     0.000000     0.000028    -0.691394 

 


           ************************************************************
           *        Program running with 18 parallel MPI-processes    *
           *              working on a common directory               *
           ************************************************************

-------------------------------------------------------------------------------
                               ORCA SCF HESSIAN
-------------------------------------------------------------------------------

                   --------- SHARK INITIALIZATION DONE ---------

Hessian of the Kohn-Sham DFT energy:
Kohn-Sham wavefunction type                      ... UKS
Hartree-Fock exchange scaling                    ...    0.196
Number of operators                              ...    2
Number of atoms                                  ...    4
Basis set dimensions                             ...   64
Integral neglect threshold                       ... 2.5e-11
Integral primitive cutoff                        ... 2.5e-12

Setting up DFT Hessian calculations              ... 

HESS GRID
---------

General Integration Accuracy     IntAcc      ... 4.629
Radial Grid Type                 RadialGrid  ... OptM3 with GC (2021)
Angular Grid (max. ang.)         AngularGrid ... 5 (Lebedev-434)
Angular grid pruning method      GridPruning ... 4 (adaptive)
Weight generation scheme         WeightScheme... Becke
Basis function cutoff            BFCut       ... 1.0000e-11
Integration weight cutoff        WCut        ... 1.0000e-14
Angular grids for H and He will be reduced by one unit
Partially contracted basis set               ... off
Rotationally invariant grid construction     ... off

Total number of grid points                  ...    27261
Total number of batches                      ...      428
Average number of points per batch           ...       63
Average number of grid points per atom       ...     6815

Building densities                               ... done   (      0.0 sec)
Calculating rho(r) on the grid                   ... done   (      0.1 sec)
Building xc-kernel on the grid                   ... done   (      0.1 sec)
                                                     done   (      0.4 sec)

Nuclear repulsion Hessian  (SHARK)               ... done   (      0.0 sec)

----------------------------------------------
Forming right-hand sides of CP-SCF equations     ...
----------------------------------------------
One electron integral derivatives  (SHARK)       ... done   (      0.0 sec)
Transforming the overlap derivative matrices     ... done   (      0.0 sec)
Making the Q(x) pseudodensities                  ... done   (      0.0 sec)
Adding the E*S(x)*S(y) terms to the Hessian      ... done   (      0.0 sec)
Calculating energy weighted overlap derivatives  ... done   (      0.0 sec)
Two electron integral derivatives (SHARK-RI)     ... done   (      0.6 sec)
Exchange-correlation integral derivatives        ... done   (      0.4 sec)
tr(F(y)Q(x)) contribution to the Hessian         ... done   (      0.0 sec)
Response fock operator R(S(x)) (SHARK-RIJCOSX)   ... done   (      0.5 sec)
XC Response fock operator R(S(x))                ... done   (      0.1 sec)
tr(F(y)S(x)) contribution to the Hessian         ... done   (      0.0 sec)
Transforming and finalizing RHSs                 ... done   (      0.0 sec)

----------------------------------------------
Solving the CP-SCF equations (RIJCOSX)           ...
----------------------------------------------
     CP-SCF ITERATION   0:   1.0495e-01 (   0.3 sec   0/ 12 done)
     CP-SCF ITERATION   1:   2.7487e-02 (   0.3 sec   0/ 12 done)
     CP-SCF ITERATION   2:   8.3122e-03 (   0.3 sec   0/ 12 done)
     CP-SCF ITERATION   3:   2.7718e-03 (   0.3 sec   0/ 12 done)
     CP-SCF ITERATION   4:   4.9726e-04 (   0.3 sec   1/ 12 done)
     CP-SCF ITERATION   5:   9.8482e-05 (   0.3 sec  12/ 12 done)
                    *** THE CP-SCF HAS CONVERGED ***

                                                 ... done   (      2.0 sec)
Forming perturbed density Hessian contributions  ... done   (      0.0 sec)
2nd integral derivative contribs (SHARK-RI)      ... done   (      0.7 sec)
Exchange-correlation Hessian                     ... done   (      0.3 sec)
Dispersion correction in the Hessian             ... done   (      0.1 sec)
Dipole derivatives                               ... (center of mass:  0.000023,  0.000000 -0.153833)done   (      0.1 sec)

Total SCF Hessian time: 0 days 0 hours 0 min 5 sec 

Writing the Hessian file to the disk             ... done


Maximum memory used throughout the entire SCFHESS-calculation: 109.0 MB

-----------------------
VIBRATIONAL FREQUENCIES
-----------------------

Scaling factor for frequencies =  1.000000000  (already applied!)

   0:         0.00 cm**-1
   1:         0.00 cm**-1
   2:         0.00 cm**-1
   3:         0.00 cm**-1
   4:         0.00 cm**-1
   5:         0.00 cm**-1
   6:      1215.12 cm**-1
   7:      1408.74 cm**-1
   8:      1411.51 cm**-1
   9:      3066.68 cm**-1
  10:      3152.81 cm**-1
  11:      3152.95 cm**-1


------------
NORMAL MODES
------------

These modes are the Cartesian displacements weighted by the diagonal matrix
M(i,i)=1/sqrt(m[i]) where m[i] is the mass of the displaced atom
Thus, these vectors are normalized but *not* orthogonal

                  0          1          2          3          4          5    
      0       0.000000   0.000000   0.000000   0.000000   0.000000   0.000000
      1       0.000000   0.000000   0.000000   0.000000   0.000000   0.000000
      2       0.000000   0.000000   0.000000   0.000000   0.000000   0.000000
      3       0.000000   0.000000   0.000000   0.000000   0.000000   0.000000
      4       0.000000   0.000000   0.000000   0.000000   0.000000   0.000000
      5       0.000000   0.000000   0.000000   0.000000   0.000000   0.000000
      6       0.000000   0.000000   0.000000   0.000000   0.000000   0.000000
      7       0.000000   0.000000   0.000000   0.000000   0.000000   0.000000
      8       0.000000   0.000000   0.000000   0.000000   0.000000   0.000000
      9       0.000000   0.000000   0.000000   0.000000   0.000000   0.000000
     10       0.000000   0.000000   0.000000   0.000000   0.000000   0.000000
     11       0.000000   0.000000   0.000000   0.000000   0.000000   0.000000
                  6          7          8          9         10         11    
      0       0.000364  -0.000001   0.077416   0.000269   0.000151   0.090717
      1       0.000000   0.077395   0.000001   0.000000   0.090738  -0.000152
      2      -0.133183   0.000000   0.000521   0.045434  -0.000000  -0.000108
      3       0.218562  -0.000003   0.142780   0.545579  -0.001264  -0.755900
      4      -0.000001  -0.758640  -0.000012   0.000000   0.033313  -0.000056
      5       0.530226  -0.000005   0.255848  -0.179570   0.000506   0.302654
      6      -0.111449  -0.390747  -0.532626  -0.274388   0.340697  -0.163095
      7       0.187295  -0.081780  -0.391446   0.475393  -0.556691   0.340447
      8       0.528372   0.223293  -0.131023  -0.180903   0.261539  -0.151121
      9      -0.111448   0.390764  -0.532614  -0.274391  -0.341237  -0.161956
     10      -0.187295  -0.081793   0.391443  -0.475398  -0.557822  -0.338586
     11       0.528371  -0.223289  -0.131030  -0.180905  -0.262040  -0.150247


-----------
IR SPECTRUM
-----------

 Mode   freq       eps      Int      T**2         TX        TY        TZ
       cm**-1   L/(mol*cm) km/mol    a.u.
----------------------------------------------------------------------------
  6:   1215.12   0.002690   13.59  0.000691  ( 0.000076 -0.000000  0.026284)
  7:   1408.74   0.000721    3.64  0.000160  ( 0.000000 -0.012638 -0.000000)
  8:   1411.51   0.000707    3.57  0.000156  (-0.012499 -0.000000 -0.000218)
  9:   3066.68   0.000017    0.09  0.000002  ( 0.000056  0.000000  0.001321)
 10:   3152.81   0.005355   27.06  0.000530  ( 0.000038  0.023023  0.000000)
 11:   3152.95   0.005230   26.43  0.000518  ( 0.022752 -0.000038 -0.000004)

* The epsilon (eps) is given for a Dirac delta lineshape.
** The dipole moment derivative (T) already includes vibrational overlap.

The first frequency considered to be a vibration is 6
The total number of vibrations considered is 6


--------------------------
THERMOCHEMISTRY AT 298.15K
--------------------------

Temperature         ... 298.15 K
Pressure            ... 1.00 atm
Total Mass          ... 15.03 AMU

Throughout the following assumptions are being made:
  (1) The electronic state is orbitally nondegenerate
      but the spin degeneracy is treated
  (2) There are no thermally accessible electronically excited states
  (3) Hindered rotations indicated by low frequency modes are not
      treated as such but are treated as vibrations and this may
      cause some error
  (4) All equations used are the standard statistical mechanics
      equations for an ideal gas
  (5) All vibrations are strictly harmonic

freq.    1215.12  E(vib)   ...       0.01 
freq.    1408.74  E(vib)   ...       0.00 
freq.    1411.51  E(vib)   ...       0.00 
freq.    3066.68  E(vib)   ...       0.00 
freq.    3152.81  E(vib)   ...       0.00 
freq.    3152.95  E(vib)   ...       0.00 

------------
INNER ENERGY
------------

The inner energy is: U= E(el) + E(ZPE) + E(vib) + E(rot) + E(trans)
    E(el)   - is the total energy from the electronic structure calculation
              = E(kin-el) + E(nuc-el) + E(el-el) + E(nuc-nuc)
    E(ZPE)  - the the zero temperature vibrational energy from the frequency calculation
    E(vib)  - the the finite temperature correction to E(ZPE) due to population
              of excited vibrational states
    E(rot)  - is the rotational thermal energy
    E(trans)- is the translational thermal energy

Summary of contributions to the inner energy U:
Electronic energy                ...    -39.82221334 Eh
Zero point energy                ...      0.03054524 Eh      19.17 kcal/mol
Thermal vibrational correction   ...      0.00003005 Eh       0.02 kcal/mol
Thermal rotational correction    ...      0.00141627 Eh       0.89 kcal/mol
Thermal translational correction ...      0.00141627 Eh       0.89 kcal/mol
-----------------------------------------------------------------------
Total thermal energy                    -39.78880551 Eh


Summary of corrections to the electronic energy:
(perhaps to be used in another calculation)
Total thermal correction                  0.00286259 Eh       1.80 kcal/mol
Non-thermal (ZPE) correction              0.03054524 Eh      19.17 kcal/mol
-----------------------------------------------------------------------
Total correction                          0.03340783 Eh      20.96 kcal/mol


--------
ENTHALPY
--------

The enthalpy is H = U + kB*T
                kB is Boltzmann's constant
Total free energy                 ...    -39.78880551 Eh 
Thermal Enthalpy correction       ...      0.00094421 Eh       0.59 kcal/mol
-----------------------------------------------------------------------
Total Enthalpy                    ...    -39.78786130 Eh


Note: Rotational entropy computed according to Herzberg 
Infrared and Raman Spectra, Chapter V,1, Van Nostrand Reinhold, 1945 
Point Group:  C3v, Symmetry Number:   3  
Rotational constants in cm-1:     8.578360     8.577881     5.494349 

Vibrational entropy computed according to the QRRHO of S. Grimme
Chem.Eur.J. 2012 18 9955


-------
ENTROPY
-------

The entropy contributions are T*S = T*(S(el)+S(vib)+S(rot)+S(trans))
     S(el)   - electronic entropy
     S(vib)  - vibrational entropy
     S(rot)  - rotational entropy
     S(trans)- translational entropy
The entropies will be listed as multiplied by the temperature to get
units of energy

Electronic entropy                ...      0.00065446 Eh      0.41 kcal/mol
Vibrational entropy               ...      0.00003484 Eh      0.02 kcal/mol
Rotational entropy                ...      0.00563996 Eh      3.54 kcal/mol
Translational entropy             ...      0.01618771 Eh     10.16 kcal/mol
-----------------------------------------------------------------------
Final entropy term                ...      0.02251697 Eh     14.13 kcal/mol

In case the symmetry of your molecule has not been determined correctly
or in case you have a reason to use a different symmetry number we print 
out the resulting rotational entropy values for sn=1,12 :
 --------------------------------------------------------
|  sn= 1 | S(rot)=       0.00667725 Eh      4.19 kcal/mol|
|  sn= 2 | S(rot)=       0.00602280 Eh      3.78 kcal/mol|
|  sn= 3 | S(rot)=       0.00563996 Eh      3.54 kcal/mol|
|  sn= 4 | S(rot)=       0.00536834 Eh      3.37 kcal/mol|
|  sn= 5 | S(rot)=       0.00515765 Eh      3.24 kcal/mol|
|  sn= 6 | S(rot)=       0.00498551 Eh      3.13 kcal/mol|
|  sn= 7 | S(rot)=       0.00483996 Eh      3.04 kcal/mol|
|  sn= 8 | S(rot)=       0.00471388 Eh      2.96 kcal/mol|
|  sn= 9 | S(rot)=       0.00460267 Eh      2.89 kcal/mol|
|  sn=10 | S(rot)=       0.00450320 Eh      2.83 kcal/mol|
|  sn=11 | S(rot)=       0.00441321 Eh      2.77 kcal/mol|
|  sn=12 | S(rot)=       0.00433105 Eh      2.72 kcal/mol|
 --------------------------------------------------------


-------------------
GIBBS FREE ENERGY
-------------------

The Gibbs free energy is G = H - T*S

Total enthalpy                    ...    -39.78786130 Eh 
Total entropy correction          ...     -0.02251697 Eh    -14.13 kcal/mol
-----------------------------------------------------------------------
Final Gibbs free energy         ...    -39.81037827 Eh

For completeness - the Gibbs free energy minus the electronic energy
G-E(el)                           ...      0.01183507 Eh      7.43 kcal/mol


Timings for individual modules:

Sum of individual times         ...       47.977 sec (=   0.800 min)
GTO integral calculation        ...        8.035 sec (=   0.134 min)  16.7 %
SCF iterations                  ...       25.302 sec (=   0.422 min)  52.7 %
SCF Gradient evaluation         ...        6.143 sec (=   0.102 min)  12.8 %
Geometry relaxation             ...        0.130 sec (=   0.002 min)   0.3 %
Analytical frequency calculation...        8.367 sec (=   0.139 min)  17.4 %
                             ****ORCA TERMINATED NORMALLY****
TOTAL RUN TIME: 0 days 0 hours 0 minutes 55 seconds 273 msec

slurmID:    32260103
totalRuntime[s]:    55.310338839
