
                                 *****************
                                 * O   R   C   A *
                                 *****************

                                            #,                                       
                                            ###                                      
                                            ####                                     
                                            #####                                    
                                            ######                                   
                                           ########,                                 
                                     ,,################,,,,,                         
                               ,,#################################,,                 
                          ,,##########################################,,             
                       ,#########################################, ''#####,          
                    ,#############################################,,   '####,        
                  ,##################################################,,,,####,       
                ,###########''''           ''''###############################       
              ,#####''   ,,,,##########,,,,          '''####'''          '####       
            ,##' ,,,,###########################,,,                        '##       
           ' ,,###''''                  '''############,,,                           
         ,,##''                                '''############,,,,        ,,,,,,###''
      ,#''                                            '''#######################'''  
     '                                                          ''''####''''         
             ,#######,   #######,   ,#######,      ##                                
            ,#'     '#,  ##    ##  ,#'     '#,    #''#        ######   ,####,        
            ##       ##  ##   ,#'  ##            #'  '#       #        #'  '#        
            ##       ##  #######   ##           ,######,      #####,   #    #        
            '#,     ,#'  ##    ##  '#,     ,#' ,#      #,         ##   #,  ,#        
             '#######'   ##     ##  '#######'  #'      '#     #####' # '####'        



                  #######################################################
                  #                        -***-                        #
                  #          Department of theory and spectroscopy      #
                  #    Directorship and core code : Frank Neese         #
                  #        Max Planck Institute fuer Kohlenforschung    #
                  #                Kaiser Wilhelm Platz 1               #
                  #                 D-45470 Muelheim/Ruhr               #
                  #                      Germany                        #
                  #                                                     #
                  #                  All rights reserved                #
                  #                        -***-                        #
                  #######################################################


                         Program Version 5.0.4 -  RELEASE  -


 With contributions from (in alphabetic order):
   Daniel Aravena         : Magnetic Suceptibility
   Michael Atanasov       : Ab Initio Ligand Field Theory (pilot matlab implementation)
   Alexander A. Auer      : GIAO ZORA, VPT2 properties, NMR spectrum
   Ute Becker             : Parallelization
   Giovanni Bistoni       : ED, misc. LED, open-shell LED, HFLD
   Martin Brehm           : Molecular dynamics
   Dmytro Bykov           : SCF Hessian
   Vijay G. Chilkuri      : MRCI spin determinant printing, contributions to CSF-ICE
   Dipayan Datta          : RHF DLPNO-CCSD density
   Achintya Kumar Dutta   : EOM-CC, STEOM-CC
   Dmitry Ganyushin       : Spin-Orbit,Spin-Spin,Magnetic field MRCI
   Miquel Garcia          : C-PCM and meta-GGA Hessian, CC/C-PCM, Gaussian charge scheme
   Yang Guo               : DLPNO-NEVPT2, F12-NEVPT2, CIM, IAO-localization
   Andreas Hansen         : Spin unrestricted coupled pair/coupled cluster methods
   Benjamin Helmich-Paris : MC-RPA, TRAH-SCF, COSX integrals
   Lee Huntington         : MR-EOM, pCC
   Robert Izsak           : Overlap fitted RIJCOSX, COSX-SCS-MP3, EOM
   Marcus Kettner         : VPT2
   Christian Kollmar      : KDIIS, OOCD, Brueckner-CCSD(T), CCSD density, CASPT2, CASPT2-K
   Simone Kossmann        : Meta GGA functionals, TD-DFT gradient, OOMP2, MP2 Hessian
   Martin Krupicka        : Initial AUTO-CI
   Lucas Lang             : DCDCAS
   Marvin Lechner         : AUTO-CI (C++ implementation), FIC-MRCC
   Dagmar Lenk            : GEPOL surface, SMD
   Dimitrios Liakos       : Extrapolation schemes; Compound Job, initial MDCI parallelization
   Dimitrios Manganas     : Further ROCIS development; embedding schemes
   Dimitrios Pantazis     : SARC Basis sets
   Anastasios Papadopoulos: AUTO-CI, single reference methods and gradients
   Taras Petrenko         : DFT Hessian,TD-DFT gradient, ASA, ECA, R-Raman, ABS, FL, XAS/XES, NRVS
   Peter Pinski           : DLPNO-MP2, DLPNO-MP2 Gradient
   Christoph Reimann      : Effective Core Potentials
   Marius Retegan         : Local ZFS, SOC
   Christoph Riplinger    : Optimizer, TS searches, QM/MM, DLPNO-CCSD(T), (RO)-DLPNO pert. Triples
   Tobias Risthaus        : Range-separated hybrids, TD-DFT gradient, RPA, STAB
   Michael Roemelt        : Original ROCIS implementation
   Masaaki Saitow         : Open-shell DLPNO-CCSD energy and density
   Barbara Sandhoefer     : DKH picture change effects
   Avijit Sen             : IP-ROCIS
   Kantharuban Sivalingam : CASSCF convergence, NEVPT2, FIC-MRCI
   Bernardo de Souza      : ESD, SOC TD-DFT
   Georgi Stoychev        : AutoAux, RI-MP2 NMR, DLPNO-MP2 response
   Willem Van den Heuvel  : Paramagnetic NMR
   Boris Wezisla          : Elementary symmetry handling
   Frank Wennmohs         : Technical directorship


 We gratefully acknowledge several colleagues who have allowed us to
 interface, adapt or use parts of their codes:
   Stefan Grimme, W. Hujo, H. Kruse, P. Pracht,  : VdW corrections, initial TS optimization,
                  C. Bannwarth, S. Ehlert          DFT functionals, gCP, sTDA/sTD-DF
   Ed Valeev, F. Pavosevic, A. Kumar             : LibInt (2-el integral package), F12 methods
   Garnet Chan, S. Sharma, J. Yang, R. Olivares  : DMRG
   Ulf Ekstrom                                   : XCFun DFT Library
   Mihaly Kallay                                 : mrcc  (arbitrary order and MRCC methods)
   Jiri Pittner, Ondrej Demel                    : Mk-CCSD
   Frank Weinhold                                : gennbo (NPA and NBO analysis)
   Christopher J. Cramer and Donald G. Truhlar   : smd solvation model
   Lars Goerigk                                  : TD-DFT with DH, B97 family of functionals
   V. Asgeirsson, H. Jonsson                     : NEB implementation
   FAccTs GmbH                                   : IRC, NEB, NEB-TS, DLPNO-Multilevel, CI-OPT
                                                   MM, QMMM, 2- and 3-layer-ONIOM, Crystal-QMMM,
                                                   LR-CPCM, SF, NACMEs, symmetry and pop. for TD-DFT,
                                                   nearIR, NL-DFT gradient (VV10), updates on ESD,
                                                   ML-optimized integration grids
   S Lehtola, MJT Oliveira, MAL Marques          : LibXC Library
   Liviu Ungur et al                             : ANISO software


 Your calculation uses the libint2 library for the computation of 2-el integrals
 For citations please refer to: http://libint.valeyev.net

 Your ORCA version has been built with support for libXC version: 5.1.0
 For citations please refer to: https://tddft.org/programs/libxc/

 This ORCA versions uses:
   CBLAS   interface :  Fast vector & matrix operations
   LAPACKE interface :  Fast linear algebra routines
   SCALAPACK package :  Parallel linear algebra routines
   Shared memory     :  Shared parallel matrices
   BLAS/LAPACK       :  OpenBLAS 0.3.15  USE64BITINT DYNAMIC_ARCH NO_AFFINITY SkylakeX SINGLE_THREADED
        Core in use  :  SkylakeX
   Copyright (c) 2011-2014, The OpenBLAS Project


Your calculation utilizes the atom-pairwise dispersion correction
with the zero-damping scheme (D30)
Cite in your paper:
S.Grimme, J.Antony, S.Ehrlich and H.Krieg, J.Chem.Phys., 132, (2010), 154104 
   

XCFun DFT library Copyright 2009-2010 Ulf Ekstrom and contributors.
See http://admol.org/xcfun for more information.
This is free software; see the source code for copying conditions.
There is ABSOLUTELY NO WARRANTY; not even for MERCHANTABILITY or FITNESS FOR A PARTICULAR PURPOSE.
For details see the documentation.
Scientific users of this library should cite U. Ekstrom, L. Visscher, R. Bast, A. J. Thorvaldsen and K. Ruud;
J.Chem.Theor.Comp. 2010, DOI: 10.1021/ct100117s
XCFun Version 0.99 

================================================================================

----- Orbital basis set information -----
Your calculation utilizes the basis: def2-TZVPD
   F. Weigend and R. Ahlrichs, Phys. Chem. Chem. Phys. 7, 3297 (2005).
   D. Rappoport and F. Furche, J. Chem. Phys. 133 134105 (2010).

----- AuxJ basis set information -----
Your calculation utilizes the auxiliary basis: def2/J
   F. Weigend, Phys. Chem. Chem. Phys. 8, 1057 (2006).

================================================================================
                                        WARNINGS
                       Please study these warnings very carefully!
================================================================================


WARNING: Geometry Optimization
  ===> : Switching off AutoStart
         For restart on a previous wavefunction, please use MOREAD

INFO   : the flag for use of the SHARK integral package has been found!

================================================================================
                                       INPUT FILE
================================================================================
NAME = /beegfs/scratch/ispackman/PFAS_EPR_calcs/benchmark/JChemEd_CF3_radical/CH3_radical_99.0_degrees_IN-PROGRESS/CH3_radical_99.0_degrees.inp
|  1> ! UKS TightSCF wB97x-D3 def2-TZVPD xyzfile opt freq
|  2> 
|  3> # CH3 radical 99.0 degrees fixed
|  4> 
|  5> %maxcore 1000
|  6> %pal
|  7> nprocs 18
|  8> end
|  9> 
| 10> %geom Constraints
| 11>         { A * 0 * C }
| 12>     end
| 13> end
| 14> * xyz 0 2
| 15> C 0.00 0.00 0.00
| 16> H 0.9482844721 0.0000000000 -0.5168718990
| 17> H -0.4741422360 0.8212384428 -0.5168718990
| 18> H -0.4741422360 -0.8212384428 -0.5168718990
| 19> **                         ****END OF INPUT****
================================================================================

                       *****************************
                       * Geometry Optimization Run *
                       *****************************

Geometry optimization settings:
Update method            Update   .... BFGS
Choice of coordinates    CoordSys .... Z-matrix Internals
Initial Hessian          InHess   .... Almoef's Model

Convergence Tolerances:
Energy Change            TolE     ....  5.0000e-06 Eh
Max. Gradient            TolMAXG  ....  3.0000e-04 Eh/bohr
RMS Gradient             TolRMSG  ....  1.0000e-04 Eh/bohr
Max. Displacement        TolMAXD  ....  4.0000e-03 bohr
RMS Displacement         TolRMSD  ....  2.0000e-03 bohr
Strict Convergence                ....  False
------------------------------------------------------------------------------
                        ORCA OPTIMIZATION COORDINATE SETUP
------------------------------------------------------------------------------

The optimization will be done in new redundant internal coordinates
Making redundant internal coordinates   ...  (new redundants) done
Evaluating the initial hessian          ...  (Almloef) done
Evaluating the coordinates              ...  done
Calculating the B-matrix                .... done
Calculating the G-matrix                .... done
Diagonalizing the G-matrix              .... done
Imposing constraints:
 Iter   0:  RMS(Cart)=    0.0000000000 RMS(Int)=    0.0000000000
CONVERGED
Will constrain atom 0 coordinate 1 
Will constrain atom 0 coordinate 2 
Will constrain atom 1 coordinate 2 
The first mode is                       ....    1
The number of degrees of freedom        ....    6
Storing new coordinates                 .... done

    -----------------------------------------------------------------
                    Redundant Internal Coordinates


    -----------------------------------------------------------------
         Definition                    Initial Value    Approx d2E/dq
    -----------------------------------------------------------------
      1. B(H   1,C   0)                  1.0800         0.373575   
      2. B(H   2,C   0)                  1.0800         0.373575   
      3. B(H   3,C   0)                  1.0800         0.373575   
      4. A(H   2,C   0,H   3)           99.0000         0.294224 C 
      5. A(H   1,C   0,H   2)           99.0000         0.294224 C 
      6. A(H   1,C   0,H   3)           99.0000         0.294224 C 
      7. I(H   1,H   3,H   2,C   0)     76.0619         0.002569   
    -----------------------------------------------------------------

Number of atoms                         .... 4
Number of degrees of freedom            .... 7

         *************************************************************
         *                GEOMETRY OPTIMIZATION CYCLE   1            *
         *************************************************************
---------------------------------
CARTESIAN COORDINATES (ANGSTROEM)
---------------------------------
  C      0.000000    0.000000    0.000000
  H      0.948284    0.000000   -0.516872
  H     -0.474142    0.821238   -0.516872
  H     -0.474142   -0.821238   -0.516872

----------------------------
CARTESIAN COORDINATES (A.U.)
----------------------------
  NO LB      ZA    FRAG     MASS         X           Y           Z
   0 C     6.0000    0    12.011    0.000000    0.000000    0.000000
   1 H     1.0000    0     1.008    1.791998    0.000000   -0.976746
   2 H     1.0000    0     1.008   -0.895999    1.551916   -0.976746
   3 H     1.0000    0     1.008   -0.895999   -1.551916   -0.976746

--------------------------------
INTERNAL COORDINATES (ANGSTROEM)
--------------------------------
 C      0   0   0     0.000000000000     0.00000000     0.00000000
 H      1   0   0     1.080000000001     0.00000000     0.00000000
 H      1   2   0     1.079999999939    99.00000000     0.00000000
 H      1   2   3     1.079999999939    99.00000000   100.68704025

---------------------------
INTERNAL COORDINATES (A.U.)
---------------------------
 C      0   0   0     0.000000000000     0.00000000     0.00000000
 H      1   0   0     2.040904224637     0.00000000     0.00000000
 H      1   2   0     2.040904224519    99.00000000     0.00000000
 H      1   2   3     2.040904224519    99.00000000   100.68704025

---------------------
BASIS SET INFORMATION
---------------------
There are 2 groups of distinct atoms

 Group   1 Type C   : 12s6p3d1f contracted to 6s3p3d1f pattern {621111/411/111/1}
 Group   2 Type H   : 5s2p contracted to 3s2p pattern {311/11}

Atom   0C    basis set group =>   1
Atom   1H    basis set group =>   2
Atom   2H    basis set group =>   2
Atom   3H    basis set group =>   2
---------------------------------
AUXILIARY/J BASIS SET INFORMATION
---------------------------------
There are 2 groups of distinct atoms

 Group   1 Type C   : 12s5p4d2f1g contracted to 6s4p3d1f1g pattern {711111/2111/211/2/1}
 Group   2 Type H   : 5s2p1d contracted to 3s1p1d pattern {311/2/1}

Atom   0C    basis set group =>   1
Atom   1H    basis set group =>   2
Atom   2H    basis set group =>   2
Atom   3H    basis set group =>   2


           ************************************************************
           *        Program running with 18 parallel MPI-processes    *
           *              working on a common directory               *
           ************************************************************
------------------------------------------------------------------------------
                           ORCA GTO INTEGRAL CALCULATION
                           -- RI-GTO INTEGRALS CHOSEN --
------------------------------------------------------------------------------
------------------------------------------------------------------------------
                   ___                                                        
                  /   \      - P O W E R E D   B Y -                         
                 /     \                                                     
                 |  |  |   _    _      __       _____    __    __             
                 |  |  |  | |  | |    /  \     |  _  \  |  |  /  |          
                  \  \/   | |  | |   /    \    | | | |  |  | /  /          
                 / \  \   | |__| |  /  /\  \   | |_| |  |  |/  /          
                |  |  |   |  __  | /  /__\  \  |    /   |      \           
                |  |  |   | |  | | |   __   |  |    \   |  |\   \          
                \     /   | |  | | |  |  |  |  | |\  \  |  | \   \       
                 \___/    |_|  |_| |__|  |__|  |_| \__\ |__|  \__/        
                                                                              
                      - O R C A' S   B I G   F R I E N D -                    
                                      &                                       
                       - I N T E G R A L  F E E D E R -                       
                                                                              
 v1 FN, 2020, v2 2021                                                         
------------------------------------------------------------------------------


Reading SHARK input file /beegfs/scratch/ispackman/PFAS_EPR_calcs/benchmark/JChemEd_CF3_radical/CH3_radical_99.0_degrees_IN-PROGRESS/CH3_radical_99.0_degrees.SHARKINP.tmp ... ok
----------------------
SHARK INTEGRAL PACKAGE
----------------------

Number of atoms                             ...      4
Number of basis functions                   ...     64
Number of shells                            ...     28
Maximum angular momentum                    ...      3
Integral batch strategy                     ... SHARK/LIBINT Hybrid
RI-J (if used) integral strategy            ... SPLIT-RIJ (Revised 2003 algorithm where possible)
Printlevel                                  ...      1
Contraction scheme used                     ... SEGMENTED contraction
Coulomb Range Separation                    ... NOT USED
Exchange Range Separation                   ... Long Range
   Mu parameter                             ...  0.250000
   Scaling (regular/separated)              ...  0.195728  0.804272
Finite Nucleus Model                        ... NOT USED
Auxiliary Coulomb fitting basis             ... AVAILABLE
   # of basis functions in Aux-J            ...     82
   # of shells in Aux-J                     ...     30
   Maximum angular momentum in Aux-J        ...      4
Auxiliary J/K fitting basis                 ... NOT available
Auxiliary Correlation fitting basis         ... NOT available
Auxiliary 'external' fitting basis          ... NOT available
Integral threshold                          ...     2.500000e-11
Primitive cut-off                           ...     2.500000e-12
Primitive pair pre-selection threshold      ...     2.500000e-12

Calculating pre-screening integrals         ... done (  0.0 sec) Dimension = 28
Organizing shell pair data                  ... done (  0.0 sec)
Shell pair information
Total number of shell pairs                 ...       406
Shell pairs after pre-screening             ...       406
Total number of primitive shell pairs       ...       977
Primitive shell pairs kept                  ...       947
          la=0 lb=0:    120 shell pairs
          la=1 lb=0:    135 shell pairs
          la=1 lb=1:     45 shell pairs
          la=2 lb=0:     45 shell pairs
          la=2 lb=1:     27 shell pairs
          la=2 lb=2:      6 shell pairs
          la=3 lb=0:     15 shell pairs
          la=3 lb=1:      9 shell pairs
          la=3 lb=2:      3 shell pairs
          la=3 lb=3:      1 shell pairs

Calculating one electron integrals          ... done (  0.0 sec)
Calculating RI/J V-Matrix + Cholesky decomp.... done (  0.0 sec)
Calculating Nuclear repulsion               ... done (  0.0 sec) ENN=      9.786167454365 Eh

SHARK setup successfully completed in   0.3 seconds

Maximum memory used throughout the entire GTOINT-calculation: 14.0 MB


           ************************************************************
           *        Program running with 18 parallel MPI-processes    *
           *              working on a common directory               *
           ************************************************************
-------------------------------------------------------------------------------
                                 ORCA SCF
-------------------------------------------------------------------------------

------------
SCF SETTINGS
------------
Hamiltonian:
 Density Functional     Method          .... DFT(GTOs)
 Exchange Functional    Exchange        .... WB97X-D3
 Correlation Functional Correlation     .... WB97X-D3
 Gradients option       PostSCFGGA      .... off
 Hybrid DFT is turned on
   Fraction HF Exchange ScalHFX         ....  0.195728
   Scaling of DF-GGA-X  ScalDFX         ....  0.000000
   Scaling of DF-GGA-C  ScalDFC         ....  1.000000
   Scaling of DF-LDA-C  ScalLDAC        ....  1.000000
   Perturbative correction              ....  0.000000
   Density functional embedding theory  .... OFF
 Long-range corrected/Screened/Range-Separated Hybrid DFT is turned on
   Amount of maximum screened exact exchange              ....  0.804272
   Range separation parameter mu (erf(mu*r12)/r12)        ....  0.250000
 RI-approximation to the Coulomb term is turned on
   Number of AuxJ basis functions       .... 82
   RIJ-COSX (HFX calculated with COS-X)).... on


General Settings:
 Integral files         IntName         .... /beegfs/scratch/ispackman/PFAS_EPR_calcs/benchmark/JChemEd_CF3_radical/CH3_radical_99.0_degrees_IN-PROGRESS/CH3_radical_99.0_degrees
 Hartree-Fock type      HFTyp           .... UHF
 Total Charge           Charge          ....    0
 Multiplicity           Mult            ....    2
 Number of Electrons    NEL             ....    9
 Basis Dimension        Dim             ....   64
 Nuclear Repulsion      ENuc            ....      9.7861674544 Eh

Convergence Acceleration:
 DIIS                   CNVDIIS         .... on
   Start iteration      DIISMaxIt       ....    12
   Startup error        DIISStart       ....  0.200000
   # of expansion vecs  DIISMaxEq       ....     5
   Bias factor          DIISBfac        ....   1.050
   Max. coefficient     DIISMaxC        ....  10.000
 Trust-Rad. Augm. Hess. CNVTRAH         .... auto
   Auto Start mean grad. ratio tolernc. ....  1.125000
   Auto Start start iteration           ....    20
   Auto Start num. interpolation iter.  ....    10
   Max. Number of Micro iterations      ....    16
   Max. Number of Macro iterations      .... Maxiter - #DIIS iter
   Number of Davidson start vectors     ....     2
   Converg. threshold I  (grad. norm)   ....   1.000e-05
   Converg. threshold II (energy diff.) ....   1.000e-08
   Grad. Scal. Fac. for Micro threshold ....   0.100
   Minimum threshold for Micro iter.    ....   0.010
   NR start threshold (gradient norm)   ....   0.001
   Initial trust radius                 ....   0.400
   Minimum AH scaling param. (alpha)    ....   1.000
   Maximum AH scaling param. (alpha)    .... 1000.000
   Orbital update algorithm             .... Taylor
   White noise on init. David. guess    .... on
   Maximum white noise                  ....   0.010
   Quad. conv. algorithm                .... NR
 SOSCF                  CNVSOSCF        .... off
 Level Shifting         CNVShift        .... on
   Level shift para.    LevelShift      ....    0.2500
   Turn off err/grad.   ShiftErr        ....    0.0010
 Zerner damping         CNVZerner       .... off
 Static damping         CNVDamp         .... on
   Fraction old density DampFac         ....    0.7000
   Max. Damping (<1)    DampMax         ....    0.9800
   Min. Damping (>=0)   DampMin         ....    0.0000
   Turn off err/grad.   DampErr         ....    0.1000
 Fernandez-Rico         CNVRico         .... off

SCF Procedure:
 Maximum # iterations   MaxIter         ....   125
 SCF integral mode      SCFMode         .... Direct
   Integral package                     .... SHARK and LIBINT hybrid scheme
 Reset frequency        DirectResetFreq ....    20
 Integral Threshold     Thresh          ....  2.500e-11 Eh
 Primitive CutOff       TCut            ....  2.500e-12 Eh

Convergence Tolerance:
 Convergence Check Mode ConvCheckMode   .... Total+1el-Energy
 Convergence forced     ConvForced      .... 0
 Energy Change          TolE            ....  1.000e-08 Eh
 1-El. energy change                    ....  1.000e-05 Eh
 DIIS Error             TolErr          ....  5.000e-07


Diagonalization of the overlap matrix:
Smallest eigenvalue                        ... 3.808e-05
Time for diagonalization                   ...    0.002 sec
Threshold for overlap eigenvalues          ... 1.000e-08
Number of eigenvalues below threshold      ... 0
Time for construction of square roots      ...    0.015 sec
Total time needed                          ...    0.018 sec

Time for model grid setup =    0.040 sec

------------------------------
INITIAL GUESS: MODEL POTENTIAL
------------------------------
Loading Hartree-Fock densities                     ... done
Calculating cut-offs                               ... done
Initializing the effective Hamiltonian             ... done
Setting up the integral package (SHARK)            ... done
Starting the Coulomb interaction                   ... done (   0.1 sec)
Reading the grid                                   ... done
Mapping shells                                     ... done
Starting the XC term evaluation                    ... done (   0.0 sec)
  promolecular density results
     # of electrons  =      8.997928991
     EX              =     -5.937248951
     EC              =     -0.260479899
     EX+EC           =     -6.197728850
Transforming the Hamiltonian                       ... done (   0.0 sec)
Diagonalizing the Hamiltonian                      ... done (   0.0 sec)
Back transforming the eigenvectors                 ... done (   0.0 sec)
Now organizing SCF variables                       ... done
                      ------------------
                      INITIAL GUESS DONE (   0.1 sec)
                      ------------------
-------------------
DFT GRID GENERATION
-------------------

General Integration Accuracy     IntAcc      ... 4.388
Radial Grid Type                 RadialGrid  ... OptM3 with GC (2021)
Angular Grid (max. ang.)         AngularGrid ... 4 (Lebedev-302)
Angular grid pruning method      GridPruning ... 4 (adaptive)
Weight generation scheme         WeightScheme... Becke
Basis function cutoff            BFCut       ... 1.0000e-11
Integration weight cutoff        WCut        ... 1.0000e-14
Angular grids for H and He will be reduced by one unit
Partially contracted basis set               ... off
Rotationally invariant grid construction     ... off

Total number of grid points                  ...    17035
Total number of batches                      ...      267
Average number of points per batch           ...       63
Average number of grid points per atom       ...     4259
Time for grid setup =    0.104 sec

--------------------
COSX GRID GENERATION
--------------------

GRIDX 1
-------
General Integration Accuracy     IntAcc      ... 3.816
Radial Grid Type                 RadialGrid  ... OptM3 with GC (2021)
Angular Grid (max. ang.)         AngularGrid ... 1 (Lebedev-50)
Angular grid pruning method      GridPruning ... 4 (adaptive)
Weight generation scheme         WeightScheme... Becke
Basis function cutoff            BFCut       ... 1.0000e-11
Integration weight cutoff        WCut        ... 1.0000e-14
Angular grids for H and He will be reduced by one unit
Partially contracted basis set               ... on
Rotationally invariant grid construction     ... off

Total number of grid points                  ...     2145
Total number of batches                      ...       36
Average number of points per batch           ...       59
Average number of grid points per atom       ...      536
UseSFitting                                  ... on

GRIDX 2
-------
General Integration Accuracy     IntAcc      ... 4.020
Radial Grid Type                 RadialGrid  ... OptM3 with GC (2021)
Angular Grid (max. ang.)         AngularGrid ... 2 (Lebedev-110)
Angular grid pruning method      GridPruning ... 4 (adaptive)
Weight generation scheme         WeightScheme... Becke
Basis function cutoff            BFCut       ... 1.0000e-11
Integration weight cutoff        WCut        ... 1.0000e-14
Angular grids for H and He will be reduced by one unit
Partially contracted basis set               ... on
Rotationally invariant grid construction     ... off

Total number of grid points                  ...     5048
Total number of batches                      ...       81
Average number of points per batch           ...       62
Average number of grid points per atom       ...     1262
UseSFitting                                  ... on

GRIDX 3
-------
General Integration Accuracy     IntAcc      ... 4.338
Radial Grid Type                 RadialGrid  ... OptM3 with GC (2021)
Angular Grid (max. ang.)         AngularGrid ... 3 (Lebedev-194)
Angular grid pruning method      GridPruning ... 4 (adaptive)
Weight generation scheme         WeightScheme... Becke
Basis function cutoff            BFCut       ... 1.0000e-11
Integration weight cutoff        WCut        ... 1.0000e-14
Angular grids for H and He will be reduced by one unit
Partially contracted basis set               ... on
Rotationally invariant grid construction     ... off

Total number of grid points                  ...    11712
Total number of batches                      ...      185
Average number of points per batch           ...       63
Average number of grid points per atom       ...     2928
UseSFitting                                  ... on

Time for X-Grid setup             =    0.252 sec

--------------
SCF ITERATIONS
--------------
ITER       Energy         Delta-E        Max-DP      RMS-DP      [F,P]     Damp
               ***  Starting incremental Fock matrix formation  ***
  0    -39.7686548857   0.000000000000 0.06850501  0.00127973  0.0756303 0.7000
  1    -39.7823655849  -0.013710699245 0.06235884  0.00111926  0.0486359 0.7000
                               ***Turning on DIIS***
  2    -39.7901667192  -0.007801134259 0.13138844  0.00241848  0.0281934 0.0000
  3    -39.8038120880  -0.013645368840 0.04414800  0.00079891  0.0191638 0.0000
  4    -39.8053220999  -0.001510011889 0.01435941  0.00024415  0.0032668 0.0000
  5    -39.8053888042  -0.000066704301 0.01282829  0.00020883  0.0016561 0.0000
  6    -39.8054115459  -0.000022741667 0.01368413  0.00021438  0.0006288 0.0000
               *** Restarting incremental Fock matrix formation ***
                                   *** Resetting DIIS ***
  7    -39.8054192728  -0.000007726921 0.00122077  0.00001913  0.0000842 0.0000
  8    -39.8054194300  -0.000000157215 0.00078515  0.00001233  0.0000408 0.0000
  9    -39.8054194792  -0.000000049150 0.00002361  0.00000082  0.0000170 0.0000
 10    -39.8054194820  -0.000000002826 0.00000989  0.00000032  0.0000066 0.0000
                 **** Energy Check signals convergence ****

               *****************************************************
               *                     SUCCESS                       *
               *           SCF CONVERGED AFTER  11 CYCLES          *
               *****************************************************

Old exchange energy                            =     -2.173268750 Eh
New exchange energy                            =     -2.173271699 Eh
Exchange energy change after final integration =     -0.000002949 Eh
Total energy after final integration           =    -39.805422431 Eh
Final COS-X integration done in                =     0.128 sec

----------------
TOTAL SCF ENERGY
----------------

Total Energy       :          -39.80542243 Eh           -1083.16061 eV

Components:
Nuclear Repulsion  :            9.78616745 Eh             266.29515 eV
Electronic Energy  :          -49.59158989 Eh           -1349.45577 eV
One Electron Energy:          -71.80593394 Eh           -1953.93880 eV
Two Electron Energy:           22.21434405 Eh             604.48303 eV
Max COSX asymmetry :            0.00000008 Eh               0.00000 eV

Virial components:
Potential Energy   :          -79.47299355 Eh           -2162.57010 eV
Kinetic Energy     :           39.66757112 Eh            1079.40949 eV
Virial Ratio       :            2.00347516


DFT components:
N(Alpha)           :        4.999997052096 electrons
N(Beta)            :        4.000000207338 electrons
N(Total)           :        8.999997259435 electrons
E(XC)              :       -4.316743652471 Eh       
DFET-embed. en.    :        0.000000000000 Eh       

---------------
SCF CONVERGENCE
---------------

  Last Energy change         ...   -2.5344e-10  Tolerance :   1.0000e-08
  Last MAX-Density change    ...    0.0000e+00  Tolerance :   1.0000e-07
  Last RMS-Density change    ...    0.0000e+00  Tolerance :   5.0000e-09
  Last DIIS Error            ...    1.2811e-06  Tolerance :   5.0000e-07

             **** THE GBW FILE WAS UPDATED (/beegfs/scratch/ispackman/PFAS_EPR_calcs/benchmark/JChemEd_CF3_radical/CH3_radical_99.0_degrees_IN-PROGRESS/CH3_radical_99.0_degrees.gbw) ****
             **** DENSITY /beegfs/scratch/ispackman/PFAS_EPR_calcs/benchmark/JChemEd_CF3_radical/CH3_radical_99.0_degrees_IN-PROGRESS/CH3_radical_99.0_degrees.scfp WAS UPDATED ****
             **** ENERGY FILE WAS UPDATED (/beegfs/scratch/ispackman/PFAS_EPR_calcs/benchmark/JChemEd_CF3_radical/CH3_radical_99.0_degrees_IN-PROGRESS/CH3_radical_99.0_degrees.en.tmp) ****
----------------------
UHF SPIN CONTAMINATION
----------------------

Warning: in a DFT calculation there is little theoretical justification to 
         calculate <S**2> as in Hartree-Fock theory. We will do it anyways
         but you should keep in mind that the values have only limited relevance

Expectation value of <S**2>     :     0.753064
Ideal value S*(S+1) for S=0.5   :     0.750000
Deviation                       :     0.003064

             **** THE GBW FILE WAS UPDATED (/beegfs/scratch/ispackman/PFAS_EPR_calcs/benchmark/JChemEd_CF3_radical/CH3_radical_99.0_degrees_IN-PROGRESS/CH3_radical_99.0_degrees.gbw) ****
             **** DENSITY /beegfs/scratch/ispackman/PFAS_EPR_calcs/benchmark/JChemEd_CF3_radical/CH3_radical_99.0_degrees_IN-PROGRESS/CH3_radical_99.0_degrees.scfp WAS UPDATED ****
----------------
ORBITAL ENERGIES
----------------
                 SPIN UP ORBITALS
  NO   OCC          E(Eh)            E(eV) 
   0   1.0000     -10.295393      -280.1519 
   1   1.0000      -0.821673       -22.3589 
   2   1.0000      -0.492994       -13.4150 
   3   1.0000      -0.492966       -13.4143 
   4   1.0000      -0.389518       -10.5993 
   5   0.0000       0.074970         2.0400 
   6   0.0000       0.161580         4.3968 
   7   0.0000       0.161587         4.3970 
   8   0.0000       0.174153         4.7389 
   9   0.0000       0.193967         5.2781 
  10   0.0000       0.193969         5.2782 
  11   0.0000       0.236137         6.4256 
  12   0.0000       0.253094         6.8870 
  13   0.0000       0.253099         6.8872 
  14   0.0000       0.315973         8.5981 
  15   0.0000       0.351139         9.5550 
  16   0.0000       0.351146         9.5552 
  17   0.0000       0.354579         9.6486 
  18   0.0000       0.380211        10.3461 
  19   0.0000       0.383361        10.4318 
  20   0.0000       0.383366        10.4319 
  21   0.0000       0.396898        10.8002 
  22   0.0000       0.396908        10.8004 
  23   0.0000       0.532355        14.4861 
  24   0.0000       0.561494        15.2790 
  25   0.0000       0.561503        15.2793 
  26   0.0000       0.643960        17.5230 
  27   0.0000       0.784070        21.3356 
  28   0.0000       0.788937        21.4681 
  29   0.0000       0.788944        21.4683 
  30   0.0000       0.868373        23.6296 
  31   0.0000       0.868386        23.6300 
  32   0.0000       0.968200        26.3461 
  33   0.0000       1.161978        31.6190 
  34   0.0000       1.162013        31.6200 
  35   0.0000       1.648215        44.8502 
  36   0.0000       1.742927        47.4274 
  37   0.0000       1.742995        47.4293 
  38   0.0000       1.777191        48.3598 
  39   0.0000       1.821024        49.5526 
  40   0.0000       1.939629        52.7800 
  41   0.0000       1.939665        52.7810 
  42   0.0000       2.201976        59.9188 
  43   0.0000       2.212882        60.2156 
  44   0.0000       2.212958        60.2176 
  45   0.0000       2.451845        66.7181 
  46   0.0000       2.647242        72.0351 
  47   0.0000       2.647301        72.0367 
  48   0.0000       2.724302        74.1320 
  49   0.0000       2.724397        74.1346 
  50   0.0000       2.800680        76.2104 
  51   0.0000       3.089438        84.0679 
  52   0.0000       3.155056        85.8534 
  53   0.0000       3.155145        85.8559 
  54   0.0000       3.286659        89.4345 
  55   0.0000       3.322371        90.4063 
  56   0.0000       3.322411        90.4074 
  57   0.0000       3.352184        91.2176 
  58   0.0000       3.724328       101.3441 
  59   0.0000       3.724380       101.3455 
  60   0.0000       4.338299       118.0511 
  61   0.0000       4.471050       121.6635 
  62   0.0000       4.471241       121.6687 
  63   0.0000      22.178862       603.5175 

                 SPIN DOWN ORBITALS
  NO   OCC          E(Eh)            E(eV) 
   0   1.0000     -10.283723      -279.8343 
   1   1.0000      -0.786499       -21.4017 
   2   1.0000      -0.477390       -12.9904 
   3   1.0000      -0.477372       -12.9900 
   4   0.0000      -0.036034        -0.9805 
   5   0.0000       0.083291         2.2665 
   6   0.0000       0.166642         4.5346 
   7   0.0000       0.166647         4.5347 
   8   0.0000       0.201005         5.4696 
   9   0.0000       0.201012         5.4698 
  10   0.0000       0.209764         5.7080 
  11   0.0000       0.251336         6.8392 
  12   0.0000       0.256947         6.9919 
  13   0.0000       0.256947         6.9919 
  14   0.0000       0.324844         8.8395 
  15   0.0000       0.367109         9.9896 
  16   0.0000       0.367113         9.9896 
  17   0.0000       0.369385        10.0515 
  18   0.0000       0.380041        10.3414 
  19   0.0000       0.390553        10.6275 
  20   0.0000       0.390555        10.6275 
  21   0.0000       0.405499        11.0342 
  22   0.0000       0.405502        11.0343 
  23   0.0000       0.565652        15.3922 
  24   0.0000       0.565658        15.3923 
  25   0.0000       0.569729        15.5031 
  26   0.0000       0.652501        17.7554 
  27   0.0000       0.791634        21.5414 
  28   0.0000       0.801471        21.8091 
  29   0.0000       0.801475        21.8093 
  30   0.0000       0.888541        24.1784 
  31   0.0000       0.888564        24.1791 
  32   0.0000       0.985942        26.8288 
  33   0.0000       1.172837        31.9145 
  34   0.0000       1.172864        31.9152 
  35   0.0000       1.718144        46.7531 
  36   0.0000       1.752472        47.6872 
  37   0.0000       1.752542        47.6891 
  38   0.0000       1.778525        48.3961 
  39   0.0000       1.835093        49.9354 
  40   0.0000       1.955230        53.2045 
  41   0.0000       1.955269        53.2056 
  42   0.0000       2.205565        60.0165 
  43   0.0000       2.223604        60.5074 
  44   0.0000       2.223636        60.5082 
  45   0.0000       2.466788        67.1247 
  46   0.0000       2.653275        72.1993 
  47   0.0000       2.653282        72.1995 
  48   0.0000       2.750219        74.8373 
  49   0.0000       2.750256        74.8383 
  50   0.0000       2.823470        76.8305 
  51   0.0000       3.136384        85.3453 
  52   0.0000       3.202255        87.1378 
  53   0.0000       3.202262        87.1380 
  54   0.0000       3.308390        90.0259 
  55   0.0000       3.359408        91.4142 
  56   0.0000       3.359434        91.4148 
  57   0.0000       3.379763        91.9680 
  58   0.0000       3.768982       102.5592 
  59   0.0000       3.768984       102.5593 
  60   0.0000       4.362130       118.6996 
  61   0.0000       4.493613       122.2774 
  62   0.0000       4.493764       122.2815 
  63   0.0000      22.198903       604.0629 

                    ********************************
                    * MULLIKEN POPULATION ANALYSIS *
                    ********************************

--------------------------------------------
MULLIKEN ATOMIC CHARGES AND SPIN POPULATIONS
--------------------------------------------
   0 C :   -0.691948    0.886500
   1 H :    0.230368    0.037847
   2 H :    0.230791    0.037827
   3 H :    0.230790    0.037827
Sum of atomic charges         :    0.0000000
Sum of atomic spin populations:    1.0000000

-----------------------------------------------------
MULLIKEN REDUCED ORBITAL CHARGES AND SPIN POPULATIONS
-----------------------------------------------------
CHARGE
  0 C s       :     3.315734  s :     3.315734
      pz      :     0.959852  p :     3.322370
      px      :     1.181230
      py      :     1.181287
      dz2     :     0.000115  d :     0.053259
      dxz     :     0.018805
      dyz     :     0.018814
      dx2y2   :     0.007754
      dxy     :     0.007770
      f0      :     0.000321  f :     0.000586
      f+1     :     0.000021
      f-1     :     0.000021
      f+2     :    -0.000064
      f-2     :    -0.000060
      f+3     :     0.000347
      f-3     :     0.000000
  1 H s       :     0.726966  s :     0.726966
      pz      :     0.022465  p :     0.042666
      px      :     0.015119
      py      :     0.005083
  2 H s       :     0.726663  s :     0.726663
      pz      :     0.022404  p :     0.042547
      px      :     0.007571
      py      :     0.012572
  3 H s       :     0.726663  s :     0.726663
      pz      :     0.022404  p :     0.042548
      px      :     0.007571
      py      :     0.012573

SPIN
  0 C s       :     0.028552  s :     0.028552
      pz      :     0.860847  p :     0.869433
      px      :     0.004262
      py      :     0.004323
      dz2     :    -0.000654  d :    -0.010957
      dxz     :    -0.004748
      dyz     :    -0.004743
      dx2y2   :    -0.000410
      dxy     :    -0.000401
      f0      :    -0.000470  f :    -0.000528
      f+1     :     0.000043
      f-1     :     0.000043
      f+2     :    -0.000016
      f-2     :    -0.000014
      f+3     :    -0.000113
      f-3     :    -0.000000
  1 H s       :     0.016193  s :     0.016193
      pz      :     0.019271  p :     0.021654
      px      :    -0.000455
      py      :     0.002838
  2 H s       :     0.016230  s :     0.016230
      pz      :     0.019221  p :     0.021597
      px      :     0.002009
      py      :     0.000367
  3 H s       :     0.016230  s :     0.016230
      pz      :     0.019221  p :     0.021597
      px      :     0.002009
      py      :     0.000367


                     *******************************
                     * LOEWDIN POPULATION ANALYSIS *
                     *******************************

-------------------------------------------
LOEWDIN ATOMIC CHARGES AND SPIN POPULATIONS
-------------------------------------------
   0 C :    0.055097    0.836309
   1 H :   -0.018393    0.054565
   2 H :   -0.018352    0.054563
   3 H :   -0.018352    0.054563

----------------------------------------------------
LOEWDIN REDUCED ORBITAL CHARGES AND SPIN POPULATIONS
----------------------------------------------------
CHARGE
  0 C s       :     2.905190  s :     2.905190
      pz      :     0.766002  p :     2.906749
      px      :     1.070368
      py      :     1.070379
      dz2     :     0.003381  d :     0.121484
      dxz     :     0.030944
      dyz     :     0.030946
      dx2y2   :     0.028105
      dxy     :     0.028107
      f0      :     0.001459  f :     0.011480
      f+1     :     0.000110
      f-1     :     0.000110
      f+2     :     0.003778
      f-2     :     0.003780
      f+3     :     0.002243
      f-3     :     0.000000
  1 H s       :     0.748510  s :     0.748510
      pz      :     0.071307  p :     0.269884
      px      :     0.121159
      py      :     0.077418
  2 H s       :     0.748485  s :     0.748485
      pz      :     0.071296  p :     0.269867
      px      :     0.088345
      py      :     0.110225
  3 H s       :     0.748485  s :     0.748485
      pz      :     0.071296  p :     0.269867
      px      :     0.088345
      py      :     0.110225

SPIN
  0 C s       :     0.118651  s :     0.118651
      pz      :     0.686977  p :     0.728227
      px      :     0.020637
      py      :     0.020613
      dz2     :     0.000980  d :    -0.010421
      dxz     :    -0.004144
      dyz     :    -0.004148
      dx2y2   :    -0.001560
      dxy     :    -0.001548
      f0      :    -0.000189  f :    -0.000148
      f+1     :     0.000072
      f-1     :     0.000072
      f+2     :    -0.000206
      f-2     :    -0.000204
      f+3     :     0.000307
      f-3     :     0.000000
  1 H s       :    -0.000613  s :    -0.000613
      pz      :     0.053208  p :     0.055177
      px      :     0.002954
      py      :    -0.000985
  2 H s       :    -0.000622  s :    -0.000622
      pz      :     0.053210  p :     0.055185
      px      :    -0.000003
      py      :     0.001979
  3 H s       :    -0.000622  s :    -0.000622
      pz      :     0.053210  p :     0.055185
      px      :    -0.000003
      py      :     0.001979


                      *****************************
                      * MAYER POPULATION ANALYSIS *
                      *****************************

  NA   - Mulliken gross atomic population
  ZA   - Total nuclear charge
  QA   - Mulliken gross atomic charge
  VA   - Mayer's total valence
  BVA  - Mayer's bonded valence
  FA   - Mayer's free valence

  ATOM       NA         ZA         QA         VA         BVA        FA
  0 C      6.6919     6.0000    -0.6919     3.8301     3.0557     0.7744
  1 H      0.7696     1.0000     0.2304     1.0076     1.0062     0.0014
  2 H      0.7692     1.0000     0.2308     1.0071     1.0057     0.0014
  3 H      0.7692     1.0000     0.2308     1.0071     1.0057     0.0014

  Mayer bond orders larger than 0.100000
B(  0-C ,  1-H ) :   1.0188 B(  0-C ,  2-H ) :   1.0185 B(  0-C ,  3-H ) :   1.0185 


-------
TIMINGS
-------

Total SCF time: 0 days 0 hours 0 min 7 sec 

Total time                  ....       7.880 sec
Sum of individual times     ....       7.248 sec  ( 92.0%)

Fock matrix formation       ....       6.062 sec  ( 76.9%)
  Split-RI-J                ....       0.882 sec  ( 14.6% of F)
  Chain of spheres X        ....       1.336 sec  ( 22.0% of F)
  XC integration            ....       1.222 sec  ( 20.2% of F)
    Basis function eval.    ....       0.056 sec  (  4.6% of XC)
    Density eval.           ....       0.052 sec  (  4.3% of XC)
    XC-Functional eval.     ....       0.057 sec  (  4.7% of XC)
    XC-Potential eval.      ....       0.077 sec  (  6.3% of XC)
Diagonalization             ....       0.169 sec  (  2.1%)
Density matrix formation    ....       0.014 sec  (  0.2%)
Population analysis         ....       0.139 sec  (  1.8%)
Initial guess               ....       0.104 sec  (  1.3%)
Orbital Transformation      ....       0.000 sec  (  0.0%)
Orbital Orthonormalization  ....       0.000 sec  (  0.0%)
DIIS solution               ....       0.364 sec  (  4.6%)
Grid generation             ....       0.396 sec  (  5.0%)

Maximum memory used throughout the entire SCF-calculation: 58.5 MB


-------------------------------------------------------------------------------
                          DFT DISPERSION CORRECTION                            
                                                                               
                              DFTD3 V3.1  Rev 1                                
                              USING zero damping                               
-------------------------------------------------------------------------------
The omegaB97X-D3 functional is recognized. Fit by Chai et al.
Active option DFTDOPT                   ...         3   

molecular C6(AA) [au] = 106.957534 


            DFT-D V3
 parameters
 s6 scaling factor         :     1.0000 
 rs6 scaling factor        :     1.2810 
 s8 scaling factor         :     1.0000 
 rs8 scaling factor        :     1.0940 
 Damping factor alpha6     :    14.0000 
 Damping factor alpha8     :    16.0000 
 ad hoc parameters k1-k3   :    16.0000     1.3333    -4.0000 

 Edisp/kcal,au: -0.004158738123  -0.000006627370 
 E6   /kcal   :  -0.000646579 
 E8   /kcal   :  -0.003512159 
 % E8         :  84.452509308 

-------------------------   ----------------
Dispersion correction           -0.000006627
-------------------------   ----------------


-------------------------   --------------------
FINAL SINGLE POINT ENERGY       -39.805429058807
-------------------------   --------------------



           ************************************************************
           *        Program running with 18 parallel MPI-processes    *
           *              working on a common directory               *
           ************************************************************
------------------------------------------------------------------------------
                         ORCA SCF GRADIENT CALCULATION
------------------------------------------------------------------------------

 ... reading COSX grid (gridx3)
Gradient of the Kohn-Sham DFT energy:
Kohn-Sham wavefunction type      ... UKS
Hartree-Fock exchange scaling    ...    0.196
Number of operators              ...    2
Number of atoms                  ...    4
Basis set dimensions             ...   64
Integral neglect threshold       ... 2.5e-11
Integral primitive cutoff        ... 2.5e-12
SHARK Integral package           ... ON

Nuc. rep. gradient       (SHARK) ... done (  0.0 sec)
HCore & Overlap gradient (SHARK) ... done (  0.0 sec)
RI-J gradient            (SHARK) ... done (  0.1 sec)
COSX-gradient                    ... done (  0.1 sec)
Exchange-correlation gradient    ... done
Dispersion correction            ... done

------------------
CARTESIAN GRADIENT
------------------

WARNING: THERE ARE 3 CONSTRAINED CARTESIAN COORDINATES
   1   C   :   -0.000081156   -0.000000007    0.068003384
   2   H   :   -0.026454015    0.000000007   -0.022710711
   3   H   :    0.013229561   -0.022854188   -0.022638405
   4   H   :    0.013229588    0.022854194   -0.022638373

Difference to translation invariance:
           :   -0.0000760222    0.0000000060    0.0000158949

Difference to rotation invariance:
           :   -0.0000000365    0.0001245855    0.0000000473

Norm of the cartesian gradient     ...    0.0908830170
RMS gradient                       ...    0.0262356672
MAX gradient                       ...    0.0680033838

-------
TIMINGS
-------

Total SCF gradient time            ...        0.627 sec

One electron gradient       ....       0.006 sec  (  1.0%)
RI-J Coulomb gradient       ....       0.132 sec  ( 21.0%)
COSX gradient               ....       0.120 sec  ( 19.2%)
XC gradient                 ....       0.063 sec  ( 10.1%)

Maximum memory used throughout the entire SCFGRAD-calculation: 33.6 MB
------------------------------------------------------------------------------
                         ORCA GEOMETRY RELAXATION STEP
------------------------------------------------------------------------------

Reading the OPT-File                    .... done
Getting information on internals        .... done
Copying old internal coords+grads       .... done
Making the new internal coordinates     .... (new redundants).... done
Validating the new internal coordinates .... (new redundants).... done
Calculating the B-matrix                .... done
Calculating the G,G- and P matrices     .... done
Transforming gradient to internals      .... done
Projecting the internal gradient        .... done
Number of atoms                         ....   4
Number of internal coordinates          ....   7
Current Energy                          ....   -39.805429059 Eh
Current gradient norm                   ....     0.090883017 Eh/bohr
Maximum allowed component of the step   ....  0.300
Current trust radius                    ....  0.300
Evaluating the initial hessian          ....  (Almloef) done
Projecting the Hessian                  .... done
Forming the augmented Hessian           .... done
Diagonalizing the augmented Hessian     .... done
Last element of RFO vector              ....  0.998374656
Lowest eigenvalues of augmented Hessian:
 -0.001221322  0.373574723  0.373574723  0.374796045 1000.000000000
Length of the computed step             ....  0.057084415
The final length of the internal step   ....  0.057084415
Converting the step to cartesian space:
 Initial RMS(Int)=    0.0215758807
Transforming coordinates:
 Iter   0:  RMS(Cart)=    0.0149968158 RMS(Int)=    0.0215758807
 Iter   1:  RMS(Cart)=    0.0000000000 RMS(Int)=    0.0000000000
Imposing constraints:
 Iter   0:  RMS(Cart)=    0.0000000002 RMS(Int)=    0.0000000003
CONVERGED
done
Storing new coordinates                 .... done

                                .--------------------.
          ----------------------|Geometry convergence|-------------------------
          Item                value                   Tolerance       Converged
          ---------------------------------------------------------------------
          RMS gradient        0.0080865548            0.0001000000      NO
          MAX gradient        0.0123545709            0.0003000000      NO
          RMS step            0.0215758807            0.0020000000      NO
          MAX step            0.0329634506            0.0040000000      NO
          ........................................................
          Max(Bonds)      0.0174      Max(Angles)    0.00
          Max(Dihed)        0.00      Max(Improp)    0.00
          ---------------------------------------------------------------------

The optimization has not yet converged - more geometry cycles are needed


    ---------------------------------------------------------------------------
                         Redundant Internal Coordinates
                            (Angstroem and degrees)

        Definition                    Value    dE/dq     Step     New-Value
    ----------------------------------------------------------------------------
     1. B(H   1,C   0)                1.0800 -0.012348  0.0174    1.0974   
     2. B(H   2,C   0)                1.0800 -0.012355  0.0174    1.0974   
     3. B(H   3,C   0)                1.0800 -0.012355  0.0174    1.0974   
     4. A(H   2,C   0,H   3)           99.00 -0.046196    0.00     99.00 C 
     5. A(H   1,C   0,H   2)           99.00 -0.021021   -0.00     99.00 C 
     6. A(H   1,C   0,H   3)           99.00 -0.021021   -0.00     99.00 C 
     7. I(H   1,H   3,H   2,C   0)     76.06  0.039651    0.00     76.06   
    ----------------------------------------------------------------------------

         *************************************************************
         *                GEOMETRY OPTIMIZATION CYCLE   2            *
         *************************************************************
---------------------------------
CARTESIAN COORDINATES (ANGSTROEM)
---------------------------------
  C      0.000003    0.000000    0.006260
  H      0.963594    0.000000   -0.518958
  H     -0.481799    0.834503   -0.518959
  H     -0.481799   -0.834503   -0.518959

----------------------------
CARTESIAN COORDINATES (A.U.)
----------------------------
  NO LB      ZA    FRAG     MASS         X           Y           Z
   0 C     6.0000    0    12.011    0.000005    0.000000    0.011830
   1 H     1.0000    0     1.008    1.820929    0.000000   -0.980688
   2 H     1.0000    0     1.008   -0.910467    1.576981   -0.980691
   3 H     1.0000    0     1.008   -0.910467   -1.576981   -0.980691

--------------------------------
INTERNAL COORDINATES (ANGSTROEM)
--------------------------------
 C      0   0   0     0.000000000000     0.00000000     0.00000000
 H      1   0   0     1.097434409315     0.00000000     0.00000000
 H      1   2   0     1.097443476770    99.00000001     0.00000000
 H      1   2   3     1.097443506685    99.00000001   100.68704029

---------------------------
INTERNAL COORDINATES (A.U.)
---------------------------
 C      0   0   0     0.000000000000     0.00000000     0.00000000
 H      1   0   0     2.073850483547     0.00000000     0.00000000
 H      1   2   0     2.073867618553    99.00000001     0.00000000
 H      1   2   3     2.073867675084    99.00000001   100.68704029



           ************************************************************
           *        Program running with 18 parallel MPI-processes    *
           *              working on a common directory               *
           ************************************************************
------------------------------------------------------------------------------
                   ___                                                        
                  /   \      - P O W E R E D   B Y -                         
                 /     \                                                     
                 |  |  |   _    _      __       _____    __    __             
                 |  |  |  | |  | |    /  \     |  _  \  |  |  /  |          
                  \  \/   | |  | |   /    \    | | | |  |  | /  /          
                 / \  \   | |__| |  /  /\  \   | |_| |  |  |/  /          
                |  |  |   |  __  | /  /__\  \  |    /   |      \           
                |  |  |   | |  | | |   __   |  |    \   |  |\   \          
                \     /   | |  | | |  |  |  |  | |\  \  |  | \   \       
                 \___/    |_|  |_| |__|  |__|  |_| \__\ |__|  \__/        
                                                                              
                      - O R C A' S   B I G   F R I E N D -                    
                                      &                                       
                       - I N T E G R A L  F E E D E R -                       
                                                                              
 v1 FN, 2020, v2 2021                                                         
------------------------------------------------------------------------------


Reading SHARK input file /beegfs/scratch/ispackman/PFAS_EPR_calcs/benchmark/JChemEd_CF3_radical/CH3_radical_99.0_degrees_IN-PROGRESS/CH3_radical_99.0_degrees.SHARKINP.tmp ... ok
----------------------
SHARK INTEGRAL PACKAGE
----------------------

Number of atoms                             ...      4
Number of basis functions                   ...     64
Number of shells                            ...     28
Maximum angular momentum                    ...      3
Integral batch strategy                     ... SHARK/LIBINT Hybrid
RI-J (if used) integral strategy            ... SPLIT-RIJ (Revised 2003 algorithm where possible)
Printlevel                                  ...      1
Contraction scheme used                     ... SEGMENTED contraction
Coulomb Range Separation                    ... NOT USED
Exchange Range Separation                   ... Long Range
   Mu parameter                             ...  0.250000
   Scaling (regular/separated)              ...  0.195728  0.804272
Finite Nucleus Model                        ... NOT USED
Auxiliary Coulomb fitting basis             ... AVAILABLE
   # of basis functions in Aux-J            ...     82
   # of shells in Aux-J                     ...     30
   Maximum angular momentum in Aux-J        ...      4
Auxiliary J/K fitting basis                 ... NOT available
Auxiliary Correlation fitting basis         ... NOT available
Auxiliary 'external' fitting basis          ... NOT available
Integral threshold                          ...     2.500000e-11
Primitive cut-off                           ...     2.500000e-12
Primitive pair pre-selection threshold      ...     2.500000e-12

Calculating pre-screening integrals         ... done (  0.0 sec) Dimension = 28
Organizing shell pair data                  ... done (  0.0 sec)
Shell pair information
Total number of shell pairs                 ...       406
Shell pairs after pre-screening             ...       406
Total number of primitive shell pairs       ...       977
Primitive shell pairs kept                  ...       947
          la=0 lb=0:    120 shell pairs
          la=1 lb=0:    135 shell pairs
          la=1 lb=1:     45 shell pairs
          la=2 lb=0:     45 shell pairs
          la=2 lb=1:     27 shell pairs
          la=2 lb=2:      6 shell pairs
          la=3 lb=0:     15 shell pairs
          la=3 lb=1:      9 shell pairs
          la=3 lb=2:      3 shell pairs
          la=3 lb=3:      1 shell pairs

Calculating one electron integrals          ... done (  0.0 sec)
Calculating RI/J V-Matrix + Cholesky decomp.... done (  0.0 sec)
Calculating Nuclear repulsion               ... done (  0.0 sec) ENN=      9.630646212312 Eh

SHARK setup successfully completed in   0.3 seconds

Maximum memory used throughout the entire GTOINT-calculation: 14.0 MB


           ************************************************************
           *        Program running with 18 parallel MPI-processes    *
           *              working on a common directory               *
           ************************************************************

Diagonalization of the overlap matrix:
Smallest eigenvalue                        ... 4.327e-05
Time for diagonalization                   ...    0.002 sec
Threshold for overlap eigenvalues          ... 1.000e-08
Number of eigenvalues below threshold      ... 0
Time for construction of square roots      ...    0.016 sec
Total time needed                          ...    0.019 sec

-------------------
DFT GRID GENERATION
-------------------

General Integration Accuracy     IntAcc      ... 4.388
Radial Grid Type                 RadialGrid  ... OptM3 with GC (2021)
Angular Grid (max. ang.)         AngularGrid ... 4 (Lebedev-302)
Angular grid pruning method      GridPruning ... 4 (adaptive)
Weight generation scheme         WeightScheme... Becke
Basis function cutoff            BFCut       ... 1.0000e-11
Integration weight cutoff        WCut        ... 1.0000e-14
Angular grids for H and He will be reduced by one unit
Partially contracted basis set               ... off
Rotationally invariant grid construction     ... off

Total number of grid points                  ...    17039
Total number of batches                      ...      269
Average number of points per batch           ...       63
Average number of grid points per atom       ...     4260
Time for grid setup =    0.111 sec

--------------------
COSX GRID GENERATION
--------------------

GRIDX 1
-------
General Integration Accuracy     IntAcc      ... 3.816
Radial Grid Type                 RadialGrid  ... OptM3 with GC (2021)
Angular Grid (max. ang.)         AngularGrid ... 1 (Lebedev-50)
Angular grid pruning method      GridPruning ... 4 (adaptive)
Weight generation scheme         WeightScheme... Becke
Basis function cutoff            BFCut       ... 1.0000e-11
Integration weight cutoff        WCut        ... 1.0000e-14
Angular grids for H and He will be reduced by one unit
Partially contracted basis set               ... on
Rotationally invariant grid construction     ... off

Total number of grid points                  ...     2145
Total number of batches                      ...       36
Average number of points per batch           ...       59
Average number of grid points per atom       ...      536
UseSFitting                                  ... on

GRIDX 2
-------
General Integration Accuracy     IntAcc      ... 4.020
Radial Grid Type                 RadialGrid  ... OptM3 with GC (2021)
Angular Grid (max. ang.)         AngularGrid ... 2 (Lebedev-110)
Angular grid pruning method      GridPruning ... 4 (adaptive)
Weight generation scheme         WeightScheme... Becke
Basis function cutoff            BFCut       ... 1.0000e-11
Integration weight cutoff        WCut        ... 1.0000e-14
Angular grids for H and He will be reduced by one unit
Partially contracted basis set               ... on
Rotationally invariant grid construction     ... off

Total number of grid points                  ...     5048
Total number of batches                      ...       81
Average number of points per batch           ...       62
Average number of grid points per atom       ...     1262
UseSFitting                                  ... on

GRIDX 3
-------
General Integration Accuracy     IntAcc      ... 4.338
Radial Grid Type                 RadialGrid  ... OptM3 with GC (2021)
Angular Grid (max. ang.)         AngularGrid ... 3 (Lebedev-194)
Angular grid pruning method      GridPruning ... 4 (adaptive)
Weight generation scheme         WeightScheme... Becke
Basis function cutoff            BFCut       ... 1.0000e-11
Integration weight cutoff        WCut        ... 1.0000e-14
Angular grids for H and He will be reduced by one unit
Partially contracted basis set               ... on
Rotationally invariant grid construction     ... off

Total number of grid points                  ...    11716
Total number of batches                      ...      185
Average number of points per batch           ...       63
Average number of grid points per atom       ...     2929
UseSFitting                                  ... on

Time for X-Grid setup             =    0.262 sec

--------------
SCF ITERATIONS
--------------
ITER       Energy         Delta-E        Max-DP      RMS-DP      [F,P]     Damp
               ***  Starting incremental Fock matrix formation  ***
  0    -39.8058681515   0.000000000000 0.01469428  0.00024327  0.0046592 0.7000
  1    -39.8059248154  -0.000056663857 0.01283102  0.00021273  0.0034117 0.7000
                               ***Turning on DIIS***
  2    -39.8059627298  -0.000037914399 0.03307703  0.00054885  0.0024820 0.0000
  3    -39.8060460082  -0.000083278440 0.00617832  0.00010594  0.0007108 0.0000
               *** Restarting incremental Fock matrix formation ***
                                   *** Resetting DIIS ***
  4    -39.8060499408  -0.000003932624 0.00070355  0.00001967  0.0003488 0.0000
  5    -39.8060505866  -0.000000645825 0.00047704  0.00000931  0.0002053 0.0000
  6    -39.8060508597  -0.000000273101 0.00016574  0.00000466  0.0000440 0.0000
  7    -39.8060508820  -0.000000022229 0.00007172  0.00000151  0.0000106 0.0000
                 **** Energy Check signals convergence ****

               *****************************************************
               *                     SUCCESS                       *
               *           SCF CONVERGED AFTER   8 CYCLES          *
               *****************************************************

Old exchange energy                            =     -2.168562285 Eh
New exchange energy                            =     -2.168565437 Eh
Exchange energy change after final integration =     -0.000003152 Eh
Total energy after final integration           =    -39.806054035 Eh
Final COS-X integration done in                =     0.120 sec
Total Energy       :          -39.80605404 Eh           -1083.17780 eV
  Last Energy change         ...   -1.0596e-09  Tolerance :   1.0000e-08
  Last MAX-Density change    ...    0.0000e+00  Tolerance :   1.0000e-07
             **** THE GBW FILE WAS UPDATED (/beegfs/scratch/ispackman/PFAS_EPR_calcs/benchmark/JChemEd_CF3_radical/CH3_radical_99.0_degrees_IN-PROGRESS/CH3_radical_99.0_degrees.gbw) ****
             **** DENSITY /beegfs/scratch/ispackman/PFAS_EPR_calcs/benchmark/JChemEd_CF3_radical/CH3_radical_99.0_degrees_IN-PROGRESS/CH3_radical_99.0_degrees.scfp WAS UPDATED ****
             **** ENERGY FILE WAS UPDATED (/beegfs/scratch/ispackman/PFAS_EPR_calcs/benchmark/JChemEd_CF3_radical/CH3_radical_99.0_degrees_IN-PROGRESS/CH3_radical_99.0_degrees.en.tmp) ****
----------------------
UHF SPIN CONTAMINATION
----------------------

Warning: in a DFT calculation there is little theoretical justification to 
         calculate <S**2> as in Hartree-Fock theory. We will do it anyways
         but you should keep in mind that the values have only limited relevance

Expectation value of <S**2>     :     0.753169
Ideal value S*(S+1) for S=0.5   :     0.750000
Deviation                       :     0.003169

             **** THE GBW FILE WAS UPDATED (/beegfs/scratch/ispackman/PFAS_EPR_calcs/benchmark/JChemEd_CF3_radical/CH3_radical_99.0_degrees_IN-PROGRESS/CH3_radical_99.0_degrees.gbw) ****
             **** DENSITY /beegfs/scratch/ispackman/PFAS_EPR_calcs/benchmark/JChemEd_CF3_radical/CH3_radical_99.0_degrees_IN-PROGRESS/CH3_radical_99.0_degrees.scfp WAS UPDATED ****
Total SCF time: 0 days 0 hours 0 min 5 sec 

Maximum memory used throughout the entire SCF-calculation: 58.5 MB


-------------------------------------------------------------------------------
                          DFT DISPERSION CORRECTION                            
                                                                               
                              DFTD3 V3.1  Rev 1                                
                              USING zero damping                               
-------------------------------------------------------------------------------
-------------------------   ----------------
Dispersion correction           -0.000007536
-------------------------   ----------------


-------------------------   --------------------
FINAL SINGLE POINT ENERGY       -39.806061570601
-------------------------   --------------------



           ************************************************************
           *        Program running with 18 parallel MPI-processes    *
           *              working on a common directory               *
           ************************************************************
------------------------------------------------------------------------------
                         ORCA SCF GRADIENT CALCULATION
------------------------------------------------------------------------------

 ... reading COSX grid (gridx3)
Gradient of the Kohn-Sham DFT energy:
Kohn-Sham wavefunction type      ... UKS
Hartree-Fock exchange scaling    ...    0.196
Number of operators              ...    2
Number of atoms                  ...    4
Basis set dimensions             ...   64
Integral neglect threshold       ... 2.5e-11
Integral primitive cutoff        ... 2.5e-12
SHARK Integral package           ... ON

Nuc. rep. gradient       (SHARK) ... done (  0.0 sec)
HCore & Overlap gradient (SHARK) ... done (  0.0 sec)
RI-J gradient            (SHARK) ... done (  0.1 sec)
COSX-gradient                    ... done (  0.1 sec)
Exchange-correlation gradient    ... done
Dispersion correction            ... done

------------------
CARTESIAN GRADIENT
------------------

WARNING: THERE ARE 3 CONSTRAINED CARTESIAN COORDINATES
   1   C   :   -0.000092625    0.000000027    0.081734033
   2   H   :   -0.015578713   -0.000000009   -0.027284806
   3   H   :    0.007796176   -0.013442021   -0.027219480
   4   H   :    0.007796155    0.013442011   -0.027219500

Difference to translation invariance:
           :   -0.0000790068    0.0000000088    0.0000102478

Difference to rotation invariance:
           :    0.0000000150    0.0001038712   -0.0000000400

Norm of the cartesian gradient     ...    0.0981445606
RMS gradient                       ...    0.0283318942
MAX gradient                       ...    0.0817340325

-------
TIMINGS
-------

Total SCF gradient time            ...        0.599 sec

One electron gradient       ....       0.007 sec  (  1.2%)
RI-J Coulomb gradient       ....       0.124 sec  ( 20.8%)
COSX gradient               ....       0.123 sec  ( 20.4%)
XC gradient                 ....       0.068 sec  ( 11.4%)

Maximum memory used throughout the entire SCFGRAD-calculation: 33.6 MB
------------------------------------------------------------------------------
                         ORCA GEOMETRY RELAXATION STEP
------------------------------------------------------------------------------

Reading the OPT-File                    .... done
Getting information on internals        .... done
Copying old internal coords+grads       .... done
Making the new internal coordinates     .... (new redundants).... done
Validating the new internal coordinates .... (new redundants).... done
Calculating the B-matrix                .... done
Calculating the G,G- and P matrices     .... done
Transforming gradient to internals      .... done
Projecting the internal gradient        .... done
Number of atoms                         ....   4
Number of internal coordinates          ....   7
Current Energy                          ....   -39.806061571 Eh
Current gradient norm                   ....     0.098144561 Eh/bohr
Maximum allowed component of the step   ....  0.300
Current trust radius                    ....  0.300
Updating the Hessian (BFGS)             .... done
Forming the augmented Hessian           .... done
Diagonalizing the augmented Hessian     .... done
Last element of RFO vector              ....  0.999995494
Lowest eigenvalues of augmented Hessian:
 -0.000003209  0.356071536  0.373574723  0.373577289 1000.000000000
Length of the computed step             ....  0.003002168
The final length of the internal step   ....  0.003002168
Converting the step to cartesian space:
 Initial RMS(Int)=    0.0011347128
Transforming coordinates:
 Iter   0:  RMS(Cart)=    0.0007886944 RMS(Int)=    0.0011347128
 Iter   1:  RMS(Cart)=    0.0000000000 RMS(Int)=    0.0000000000
Imposing constraints:
 Iter   0:  RMS(Cart)=    0.0000000001 RMS(Int)=    0.0000000001
CONVERGED
done
Storing new coordinates                 .... done

                                .--------------------.
          ----------------------|Geometry convergence|-------------------------
          Item                value                   Tolerance       Converged
          ---------------------------------------------------------------------
          Energy change      -0.0006325118            0.0000050000      NO
          RMS gradient        0.0004040389            0.0001000000      NO
          MAX gradient        0.0006220828            0.0003000000      NO
          RMS step            0.0011347128            0.0020000000      YES
          MAX step            0.0017471160            0.0040000000      YES
          ........................................................
          Max(Bonds)      0.0009      Max(Angles)    0.00
          Max(Dihed)        0.00      Max(Improp)    0.00
          ---------------------------------------------------------------------

The optimization has not yet converged - more geometry cycles are needed


    ---------------------------------------------------------------------------
                         Redundant Internal Coordinates
                            (Angstroem and degrees)

        Definition                    Value    dE/dq     Step     New-Value
    ----------------------------------------------------------------------------
     1. B(H   1,C   0)                1.0974 -0.000607  0.0009    1.0983   
     2. B(H   2,C   0)                1.0974 -0.000622  0.0009    1.0984   
     3. B(H   3,C   0)                1.0974 -0.000622  0.0009    1.0984   
     4. A(H   2,C   0,H   3)           99.00 -0.045231    0.00     99.00 C 
     5. A(H   1,C   0,H   2)           99.00 -0.020585    0.00     99.00 C 
     6. A(H   1,C   0,H   3)           99.00 -0.020585    0.00     99.00 C 
     7. I(H   1,H   3,H   2,C   0)     76.06  0.038828   -0.00     76.06   
    ----------------------------------------------------------------------------

         *************************************************************
         *                GEOMETRY OPTIMIZATION CYCLE   3            *
         *************************************************************
---------------------------------
CARTESIAN COORDINATES (ANGSTROEM)
---------------------------------
  C      0.000009   -0.000000    0.006589
  H      0.964391   -0.000000   -0.519065
  H     -0.482200    0.835206   -0.519070
  H     -0.482200   -0.835206   -0.519070

----------------------------
CARTESIAN COORDINATES (A.U.)
----------------------------
  NO LB      ZA    FRAG     MASS         X           Y           Z
   0 C     6.0000    0    12.011    0.000018   -0.000000    0.012452
   1 H     1.0000    0     1.008    1.822435   -0.000000   -0.980890
   2 H     1.0000    0     1.008   -0.911226    1.578310   -0.980900
   3 H     1.0000    0     1.008   -0.911226   -1.578310   -0.980900

--------------------------------
INTERNAL COORDINATES (ANGSTROEM)
--------------------------------
 C      0   0   0     0.000000000000     0.00000000     0.00000000
 H      1   0   0     1.098336877079     0.00000000     0.00000000
 H      1   2   0     1.098368010747    99.00000002     0.00000000
 H      1   2   3     1.098368000621    99.00000002   100.68704029

---------------------------
INTERNAL COORDINATES (A.U.)
---------------------------
 C      0   0   0     0.000000000000     0.00000000     0.00000000
 H      1   0   0     2.075555900466     0.00000000     0.00000000
 H      1   2   0     2.075614734572    99.00000002     0.00000000
 H      1   2   3     2.075614715436    99.00000002   100.68704029



           ************************************************************
           *        Program running with 18 parallel MPI-processes    *
           *              working on a common directory               *
           ************************************************************
------------------------------------------------------------------------------
                   ___                                                        
                  /   \      - P O W E R E D   B Y -                         
                 /     \                                                     
                 |  |  |   _    _      __       _____    __    __             
                 |  |  |  | |  | |    /  \     |  _  \  |  |  /  |          
                  \  \/   | |  | |   /    \    | | | |  |  | /  /          
                 / \  \   | |__| |  /  /\  \   | |_| |  |  |/  /          
                |  |  |   |  __  | /  /__\  \  |    /   |      \           
                |  |  |   | |  | | |   __   |  |    \   |  |\   \          
                \     /   | |  | | |  |  |  |  | |\  \  |  | \   \       
[...]
  ZA   - Total nuclear charge
  QA   - Mulliken gross atomic charge
  VA   - Mayer's total valence
  BVA  - Mayer's bonded valence
  FA   - Mayer's free valence

  ATOM       NA         ZA         QA         VA         BVA        FA
  0 C      6.6643     6.0000    -0.6643     3.8394     3.0518     0.7876
  1 H      0.7789     1.0000     0.2211     1.0144     1.0132     0.0012
  2 H      0.7784     1.0000     0.2216     1.0137     1.0126     0.0011
  3 H      0.7784     1.0000     0.2216     1.0137     1.0126     0.0011

  Mayer bond orders larger than 0.100000
B(  0-C ,  1-H ) :   1.0176 B(  0-C ,  2-H ) :   1.0171 B(  0-C ,  3-H ) :   1.0171 


-------
TIMINGS
-------

Total SCF time: 0 days 0 hours 0 min 4 sec 

Total time                  ....       4.308 sec
Sum of individual times     ....       3.763 sec  ( 87.3%)

Fock matrix formation       ....       3.006 sec  ( 69.8%)
  Split-RI-J                ....       0.498 sec  ( 16.6% of F)
  Chain of spheres X        ....       0.793 sec  ( 26.4% of F)
  XC integration            ....       0.563 sec  ( 18.7% of F)
    Basis function eval.    ....       0.027 sec  (  4.9% of XC)
    Density eval.           ....       0.026 sec  (  4.6% of XC)
    XC-Functional eval.     ....       0.028 sec  (  5.0% of XC)
    XC-Potential eval.      ....       0.033 sec  (  5.8% of XC)
Diagonalization             ....       0.087 sec  (  2.0%)
Density matrix formation    ....       0.005 sec  (  0.1%)
Population analysis         ....       0.156 sec  (  3.6%)
Initial guess               ....       0.006 sec  (  0.1%)
Orbital Transformation      ....       0.000 sec  (  0.0%)
Orbital Orthonormalization  ....       0.002 sec  (  0.0%)
DIIS solution               ....       0.103 sec  (  2.4%)
Grid generation             ....       0.400 sec  (  9.3%)

Maximum memory used throughout the entire SCF-calculation: 58.5 MB


-------------------------------------------------------------------------------
                          DFT DISPERSION CORRECTION                            
                                                                               
                              DFTD3 V3.1  Rev 1                                
                              USING zero damping                               
-------------------------------------------------------------------------------
The omegaB97X-D3 functional is recognized. Fit by Chai et al.
Active option DFTDOPT                   ...         3   

molecular C6(AA) [au] = 107.005125 


            DFT-D V3
 parameters
 s6 scaling factor         :     1.0000 
 rs6 scaling factor        :     1.2810 
 s8 scaling factor         :     1.0000 
 rs8 scaling factor        :     1.0940 
 Damping factor alpha6     :    14.0000 
 Damping factor alpha8     :    16.0000 
 ad hoc parameters k1-k3   :    16.0000     1.3333    -4.0000 

 Edisp/kcal,au: -0.004762109030  -0.000007588903 
 E6   /kcal   :  -0.000740452 
 E8   /kcal   :  -0.004021657 
 % E8         :  84.451177311 

-------------------------   ----------------
Dispersion correction           -0.000007589
-------------------------   ----------------


-------------------------   --------------------
FINAL SINGLE POINT ENERGY       -39.806063293642
-------------------------   --------------------

                                *** OPTIMIZATION RUN DONE ***

                            ***************************************
                            *     ORCA property calculations      *
                            ***************************************

                                    ---------------------
                                    Active property flags
                                    ---------------------
   (+) Dipole Moment


------------------------------------------------------------------------------
                       ORCA ELECTRIC PROPERTIES CALCULATION
------------------------------------------------------------------------------

Dipole Moment Calculation                       ... on
Quadrupole Moment Calculation                   ... off
Polarizability Calculation                      ... off
GBWName                                         ... /beegfs/scratch/ispackman/PFAS_EPR_calcs/benchmark/JChemEd_CF3_radical/CH3_radical_99.0_degrees_IN-PROGRESS/CH3_radical_99.0_degrees.gbw
Electron density                                ... /beegfs/scratch/ispackman/PFAS_EPR_calcs/benchmark/JChemEd_CF3_radical/CH3_radical_99.0_degrees_IN-PROGRESS/CH3_radical_99.0_degrees.scfp
The origin for moment calculation is the CENTER OF MASS  = ( 0.000014,  0.000000 -0.187317)

-------------
DIPOLE MOMENT
-------------
                                X             Y             Z
Electronic contribution:      0.00003      -0.00000       0.87603
Nuclear contribution   :     -0.00003      -0.00000      -1.18196
                        -----------------------------------------
Total Dipole Moment    :     -0.00000      -0.00000      -0.30593
                        -----------------------------------------
Magnitude (a.u.)       :      0.30593
Magnitude (Debye)      :      0.77762



--------------------
Rotational spectrum 
--------------------
 
Rotational constants in cm-1:     8.128312     8.128087     5.993217 
Rotational constants in MHz : 243680.676862 243673.918911 179672.134461 

 Dipole components along the rotational axes: 
x,y,z [a.u.] :     0.000000    -0.000013    -0.305932 
x,y,z [Debye]:     0.000000    -0.000033    -0.777618 

 


           ************************************************************
           *        Program running with 18 parallel MPI-processes    *
           *              working on a common directory               *
           ************************************************************

-------------------------------------------------------------------------------
                               ORCA SCF HESSIAN
-------------------------------------------------------------------------------

                   --------- SHARK INITIALIZATION DONE ---------

Hessian of the Kohn-Sham DFT energy:
Kohn-Sham wavefunction type                      ... UKS
Hartree-Fock exchange scaling                    ...    0.196
Number of operators                              ...    2
Number of atoms                                  ...    4
Basis set dimensions                             ...   64
Integral neglect threshold                       ... 2.5e-11
Integral primitive cutoff                        ... 2.5e-12

Setting up DFT Hessian calculations              ... 

HESS GRID
---------

General Integration Accuracy     IntAcc      ... 4.629
Radial Grid Type                 RadialGrid  ... OptM3 with GC (2021)
Angular Grid (max. ang.)         AngularGrid ... 5 (Lebedev-434)
Angular grid pruning method      GridPruning ... 4 (adaptive)
Weight generation scheme         WeightScheme... Becke
Basis function cutoff            BFCut       ... 1.0000e-11
Integration weight cutoff        WCut        ... 1.0000e-14
Angular grids for H and He will be reduced by one unit
Partially contracted basis set               ... off
Rotationally invariant grid construction     ... off

Total number of grid points                  ...    27260
Total number of batches                      ...      429
Average number of points per batch           ...       63
Average number of grid points per atom       ...     6815

Building densities                               ... done   (      0.0 sec)
Calculating rho(r) on the grid                   ... done   (      0.1 sec)
Building xc-kernel on the grid                   ... done   (      0.1 sec)
                                                     done   (      0.4 sec)

Nuclear repulsion Hessian  (SHARK)               ... done   (      0.0 sec)

----------------------------------------------
Forming right-hand sides of CP-SCF equations     ...
----------------------------------------------
One electron integral derivatives  (SHARK)       ... done   (      0.0 sec)
Transforming the overlap derivative matrices     ... done   (      0.0 sec)
Making the Q(x) pseudodensities                  ... done   (      0.0 sec)
Adding the E*S(x)*S(y) terms to the Hessian      ... done   (      0.0 sec)
Calculating energy weighted overlap derivatives  ... done   (      0.0 sec)
Two electron integral derivatives (SHARK-RI)     ... done   (      0.5 sec)
Exchange-correlation integral derivatives        ... done   (      0.4 sec)
tr(F(y)Q(x)) contribution to the Hessian         ... done   (      0.0 sec)
Response fock operator R(S(x)) (SHARK-RIJCOSX)   ... done   (      0.5 sec)
XC Response fock operator R(S(x))                ... done   (      0.1 sec)
tr(F(y)S(x)) contribution to the Hessian         ... done   (      0.0 sec)
Transforming and finalizing RHSs                 ... done   (      0.0 sec)

----------------------------------------------
Solving the CP-SCF equations (RIJCOSX)           ...
----------------------------------------------
     CP-SCF ITERATION   0:   1.2785e-01 (   0.3 sec   0/ 12 done)
     CP-SCF ITERATION   1:   3.0633e-02 (   0.3 sec   0/ 12 done)
     CP-SCF ITERATION   2:   1.1104e-02 (   0.3 sec   0/ 12 done)
     CP-SCF ITERATION   3:   3.7841e-03 (   0.3 sec   0/ 12 done)
     CP-SCF ITERATION   4:   6.0585e-04 (   0.3 sec   1/ 12 done)
     CP-SCF ITERATION   5:   1.3959e-04 (   0.3 sec   9/ 12 done)
     CP-SCF ITERATION   6:   3.0370e-05 (   0.3 sec  12/ 12 done)
                    *** THE CP-SCF HAS CONVERGED ***

                                                 ... done   (      2.2 sec)
Forming perturbed density Hessian contributions  ... done   (      0.0 sec)
2nd integral derivative contribs (SHARK-RI)      ... done   (      0.7 sec)
Exchange-correlation Hessian                     ... done   (      0.3 sec)
Dispersion correction in the Hessian             ... done   (      0.1 sec)
Dipole derivatives                               ... (center of mass:  0.000014,  0.000000 -0.187317)done   (      0.1 sec)

Total SCF Hessian time: 0 days 0 hours 0 min 6 sec 

Writing the Hessian file to the disk             ... done


Maximum memory used throughout the entire SCFHESS-calculation: 109.8 MB

-----------------------
VIBRATIONAL FREQUENCIES
-----------------------

Scaling factor for frequencies =  1.000000000  (already applied!)

   0:         0.00 cm**-1
   1:         0.00 cm**-1
   2:         0.00 cm**-1
   3:         0.00 cm**-1
   4:         0.00 cm**-1
   5:         0.00 cm**-1
   6:      1333.15 cm**-1
   7:      1390.12 cm**-1
   8:      1391.84 cm**-1
   9:      3044.60 cm**-1
  10:      3076.44 cm**-1
  11:      3076.68 cm**-1


------------
NORMAL MODES
------------

These modes are the Cartesian displacements weighted by the diagonal matrix
M(i,i)=1/sqrt(m[i]) where m[i] is the mass of the displaced atom
Thus, these vectors are normalized but *not* orthogonal

                  0          1          2          3          4          5    
      0       0.000000   0.000000   0.000000   0.000000   0.000000   0.000000
      1       0.000000   0.000000   0.000000   0.000000   0.000000   0.000000
      2       0.000000   0.000000   0.000000   0.000000   0.000000   0.000000
      3       0.000000   0.000000   0.000000   0.000000   0.000000   0.000000
      4       0.000000   0.000000   0.000000   0.000000   0.000000   0.000000
      5       0.000000   0.000000   0.000000   0.000000   0.000000   0.000000
      6       0.000000   0.000000   0.000000   0.000000   0.000000   0.000000
      7       0.000000   0.000000   0.000000   0.000000   0.000000   0.000000
      8       0.000000   0.000000   0.000000   0.000000   0.000000   0.000000
      9       0.000000   0.000000   0.000000   0.000000   0.000000   0.000000
     10       0.000000   0.000000   0.000000   0.000000   0.000000   0.000000
     11       0.000000   0.000000   0.000000   0.000000   0.000000   0.000000
                  6          7          8          9         10         11    
      0      -0.001336   0.000003   0.070788   0.000540  -0.084977   0.000002
      1      -0.000000  -0.070831   0.000003  -0.000000   0.000002   0.084952
      2       0.128074  -0.000000   0.002181  -0.055337  -0.000353  -0.000000
      3      -0.266002   0.000008   0.167731  -0.537513   0.720346  -0.000015
      4       0.000003   0.734647  -0.000029   0.000000   0.000001   0.049138
      5      -0.514495   0.000014   0.297843   0.222137  -0.366538   0.000008
      6       0.140961   0.392547  -0.505625   0.265537   0.146116   0.334767
      7      -0.219928   0.054660  -0.396502  -0.459381  -0.337730  -0.530692
      8      -0.505796  -0.265598  -0.161905   0.218621   0.185379   0.318543
      9       0.140958  -0.392588  -0.505594   0.265537   0.146102  -0.334773
     10       0.219928   0.054689   0.396498   0.459382   0.337708  -0.530706
     11      -0.505794   0.265589  -0.161926   0.218621   0.185366  -0.318550


-----------
IR SPECTRUM
-----------

 Mode   freq       eps      Int      T**2         TX        TY        TZ
       cm**-1   L/(mol*cm) km/mol    a.u.
----------------------------------------------------------------------------
  6:   1333.15   0.001506    7.61  0.000352  ( 0.000322  0.000000 -0.018772)
  7:   1390.12   0.000978    4.94  0.000220  (-0.000001  0.014820  0.000000)
  8:   1391.84   0.001003    5.07  0.000225  (-0.014990 -0.000001 -0.000394)
  9:   3044.60   0.000015    0.08  0.000002  ( 0.000221  0.000000 -0.001239)
 10:   3076.44   0.007550   38.16  0.000766  (-0.027675  0.000001 -0.000055)
 11:   3076.68   0.007719   39.01  0.000783  ( 0.000001  0.027981  0.000000)

* The epsilon (eps) is given for a Dirac delta lineshape.
** The dipole moment derivative (T) already includes vibrational overlap.

The first frequency considered to be a vibration is 6
The total number of vibrations considered is 6


--------------------------
THERMOCHEMISTRY AT 298.15K
--------------------------

Temperature         ... 298.15 K
Pressure            ... 1.00 atm
Total Mass          ... 15.03 AMU

Throughout the following assumptions are being made:
  (1) The electronic state is orbitally nondegenerate
      but the spin degeneracy is treated
  (2) There are no thermally accessible electronically excited states
  (3) Hindered rotations indicated by low frequency modes are not
      treated as such but are treated as vibrations and this may
      cause some error
  (4) All equations used are the standard statistical mechanics
      equations for an ideal gas
  (5) All vibrations are strictly harmonic

freq.    1333.15  E(vib)   ...       0.01 
freq.    1390.12  E(vib)   ...       0.00 
freq.    1391.84  E(vib)   ...       0.00 
freq.    3044.60  E(vib)   ...       0.00 
freq.    3076.44  E(vib)   ...       0.00 
freq.    3076.68  E(vib)   ...       0.00 

------------
INNER ENERGY
------------

The inner energy is: U= E(el) + E(ZPE) + E(vib) + E(rot) + E(trans)
    E(el)   - is the total energy from the electronic structure calculation
              = E(kin-el) + E(nuc-el) + E(el-el) + E(nuc-nuc)
    E(ZPE)  - the the zero temperature vibrational energy from the frequency calculation
    E(vib)  - the the finite temperature correction to E(ZPE) due to population
              of excited vibrational states
    E(rot)  - is the rotational thermal energy
    E(trans)- is the translational thermal energy

Summary of contributions to the inner energy U:
Electronic energy                ...    -39.80606329 Eh
Zero point energy                ...      0.03032886 Eh      19.03 kcal/mol
Thermal vibrational correction   ...      0.00002523 Eh       0.02 kcal/mol
Thermal rotational correction    ...      0.00141627 Eh       0.89 kcal/mol
Thermal translational correction ...      0.00141627 Eh       0.89 kcal/mol
-----------------------------------------------------------------------
Total thermal energy                    -39.77287666 Eh


Summary of corrections to the electronic energy:
(perhaps to be used in another calculation)
Total thermal correction                  0.00285777 Eh       1.79 kcal/mol
Non-thermal (ZPE) correction              0.03032886 Eh      19.03 kcal/mol
-----------------------------------------------------------------------
Total correction                          0.03318663 Eh      20.82 kcal/mol


--------
ENTHALPY
--------

The enthalpy is H = U + kB*T
                kB is Boltzmann's constant
Total free energy                 ...    -39.77287666 Eh 
Thermal Enthalpy correction       ...      0.00094421 Eh       0.59 kcal/mol
-----------------------------------------------------------------------
Total Enthalpy                    ...    -39.77193246 Eh


Note: Rotational entropy computed according to Herzberg 
Infrared and Raman Spectra, Chapter V,1, Van Nostrand Reinhold, 1945 
Point Group:  C3v, Symmetry Number:   3  
Rotational constants in cm-1:     8.128312     8.128087     5.993217 

Vibrational entropy computed according to the QRRHO of S. Grimme
Chem.Eur.J. 2012 18 9955


-------
ENTROPY
-------

The entropy contributions are T*S = T*(S(el)+S(vib)+S(rot)+S(trans))
     S(el)   - electronic entropy
     S(vib)  - vibrational entropy
     S(rot)  - rotational entropy
     S(trans)- translational entropy
The entropies will be listed as multiplied by the temperature to get
units of energy

Electronic entropy                ...      0.00065446 Eh      0.41 kcal/mol
Vibrational entropy               ...      0.00002905 Eh      0.02 kcal/mol
Rotational entropy                ...      0.00564980 Eh      3.55 kcal/mol
Translational entropy             ...      0.01618771 Eh     10.16 kcal/mol
-----------------------------------------------------------------------
Final entropy term                ...      0.02252102 Eh     14.13 kcal/mol

In case the symmetry of your molecule has not been determined correctly
or in case you have a reason to use a different symmetry number we print 
out the resulting rotational entropy values for sn=1,12 :
 --------------------------------------------------------
|  sn= 1 | S(rot)=       0.00668709 Eh      4.20 kcal/mol|
|  sn= 2 | S(rot)=       0.00603264 Eh      3.79 kcal/mol|
|  sn= 3 | S(rot)=       0.00564980 Eh      3.55 kcal/mol|
|  sn= 4 | S(rot)=       0.00537818 Eh      3.37 kcal/mol|
|  sn= 5 | S(rot)=       0.00516749 Eh      3.24 kcal/mol|
|  sn= 6 | S(rot)=       0.00499535 Eh      3.13 kcal/mol|
|  sn= 7 | S(rot)=       0.00484980 Eh      3.04 kcal/mol|
|  sn= 8 | S(rot)=       0.00472372 Eh      2.96 kcal/mol|
|  sn= 9 | S(rot)=       0.00461251 Eh      2.89 kcal/mol|
|  sn=10 | S(rot)=       0.00451304 Eh      2.83 kcal/mol|
|  sn=11 | S(rot)=       0.00442304 Eh      2.78 kcal/mol|
|  sn=12 | S(rot)=       0.00434089 Eh      2.72 kcal/mol|
 --------------------------------------------------------


-------------------
GIBBS FREE ENERGY
-------------------

The Gibbs free energy is G = H - T*S

Total enthalpy                    ...    -39.77193246 Eh 
Total entropy correction          ...     -0.02252102 Eh    -14.13 kcal/mol
-----------------------------------------------------------------------
Final Gibbs free energy         ...    -39.79445347 Eh

For completeness - the Gibbs free energy minus the electronic energy
G-E(el)                           ...      0.01160982 Eh      7.29 kcal/mol


Timings for individual modules:

Sum of individual times         ...       62.690 sec (=   1.045 min)
GTO integral calculation        ...       11.506 sec (=   0.192 min)  18.4 %
SCF iterations                  ...       32.709 sec (=   0.545 min)  52.2 %
SCF Gradient evaluation         ...        9.662 sec (=   0.161 min)  15.4 %
Geometry relaxation             ...        0.174 sec (=   0.003 min)   0.3 %
Analytical frequency calculation...        8.639 sec (=   0.144 min)  13.8 %
                             ****ORCA TERMINATED NORMALLY****
TOTAL RUN TIME: 0 days 0 hours 1 minutes 14 seconds 285 msec

slurmID:    32260140
totalRuntime[s]:    74.346893841
