
                                 *****************
                                 * O   R   C   A *
                                 *****************

                                            #,                                       
                                            ###                                      
                                            ####                                     
                                            #####                                    
                                            ######                                   
                                           ########,                                 
                                     ,,################,,,,,                         
                               ,,#################################,,                 
                          ,,##########################################,,             
                       ,#########################################, ''#####,          
                    ,#############################################,,   '####,        
                  ,##################################################,,,,####,       
                ,###########''''           ''''###############################       
              ,#####''   ,,,,##########,,,,          '''####'''          '####       
            ,##' ,,,,###########################,,,                        '##       
           ' ,,###''''                  '''############,,,                           
         ,,##''                                '''############,,,,        ,,,,,,###''
      ,#''                                            '''#######################'''  
     '                                                          ''''####''''         
             ,#######,   #######,   ,#######,      ##                                
            ,#'     '#,  ##    ##  ,#'     '#,    #''#        ######   ,####,        
            ##       ##  ##   ,#'  ##            #'  '#       #        #'  '#        
            ##       ##  #######   ##           ,######,      #####,   #    #        
            '#,     ,#'  ##    ##  '#,     ,#' ,#      #,         ##   #,  ,#        
             '#######'   ##     ##  '#######'  #'      '#     #####' # '####'        



                  #######################################################
                  #                        -***-                        #
                  #          Department of theory and spectroscopy      #
                  #    Directorship and core code : Frank Neese         #
                  #        Max Planck Institute fuer Kohlenforschung    #
                  #                Kaiser Wilhelm Platz 1               #
                  #                 D-45470 Muelheim/Ruhr               #
                  #                      Germany                        #
                  #                                                     #
                  #                  All rights reserved                #
                  #                        -***-                        #
                  #######################################################


                         Program Version 5.0.4 -  RELEASE  -


 With contributions from (in alphabetic order):
   Daniel Aravena         : Magnetic Suceptibility
   Michael Atanasov       : Ab Initio Ligand Field Theory (pilot matlab implementation)
   Alexander A. Auer      : GIAO ZORA, VPT2 properties, NMR spectrum
   Ute Becker             : Parallelization
   Giovanni Bistoni       : ED, misc. LED, open-shell LED, HFLD
   Martin Brehm           : Molecular dynamics
   Dmytro Bykov           : SCF Hessian
   Vijay G. Chilkuri      : MRCI spin determinant printing, contributions to CSF-ICE
   Dipayan Datta          : RHF DLPNO-CCSD density
   Achintya Kumar Dutta   : EOM-CC, STEOM-CC
   Dmitry Ganyushin       : Spin-Orbit,Spin-Spin,Magnetic field MRCI
   Miquel Garcia          : C-PCM and meta-GGA Hessian, CC/C-PCM, Gaussian charge scheme
   Yang Guo               : DLPNO-NEVPT2, F12-NEVPT2, CIM, IAO-localization
   Andreas Hansen         : Spin unrestricted coupled pair/coupled cluster methods
   Benjamin Helmich-Paris : MC-RPA, TRAH-SCF, COSX integrals
   Lee Huntington         : MR-EOM, pCC
   Robert Izsak           : Overlap fitted RIJCOSX, COSX-SCS-MP3, EOM
   Marcus Kettner         : VPT2
   Christian Kollmar      : KDIIS, OOCD, Brueckner-CCSD(T), CCSD density, CASPT2, CASPT2-K
   Simone Kossmann        : Meta GGA functionals, TD-DFT gradient, OOMP2, MP2 Hessian
   Martin Krupicka        : Initial AUTO-CI
   Lucas Lang             : DCDCAS
   Marvin Lechner         : AUTO-CI (C++ implementation), FIC-MRCC
   Dagmar Lenk            : GEPOL surface, SMD
   Dimitrios Liakos       : Extrapolation schemes; Compound Job, initial MDCI parallelization
   Dimitrios Manganas     : Further ROCIS development; embedding schemes
   Dimitrios Pantazis     : SARC Basis sets
   Anastasios Papadopoulos: AUTO-CI, single reference methods and gradients
   Taras Petrenko         : DFT Hessian,TD-DFT gradient, ASA, ECA, R-Raman, ABS, FL, XAS/XES, NRVS
   Peter Pinski           : DLPNO-MP2, DLPNO-MP2 Gradient
   Christoph Reimann      : Effective Core Potentials
   Marius Retegan         : Local ZFS, SOC
   Christoph Riplinger    : Optimizer, TS searches, QM/MM, DLPNO-CCSD(T), (RO)-DLPNO pert. Triples
   Tobias Risthaus        : Range-separated hybrids, TD-DFT gradient, RPA, STAB
   Michael Roemelt        : Original ROCIS implementation
   Masaaki Saitow         : Open-shell DLPNO-CCSD energy and density
   Barbara Sandhoefer     : DKH picture change effects
   Avijit Sen             : IP-ROCIS
   Kantharuban Sivalingam : CASSCF convergence, NEVPT2, FIC-MRCI
   Bernardo de Souza      : ESD, SOC TD-DFT
   Georgi Stoychev        : AutoAux, RI-MP2 NMR, DLPNO-MP2 response
   Willem Van den Heuvel  : Paramagnetic NMR
   Boris Wezisla          : Elementary symmetry handling
   Frank Wennmohs         : Technical directorship


 We gratefully acknowledge several colleagues who have allowed us to
 interface, adapt or use parts of their codes:
   Stefan Grimme, W. Hujo, H. Kruse, P. Pracht,  : VdW corrections, initial TS optimization,
                  C. Bannwarth, S. Ehlert          DFT functionals, gCP, sTDA/sTD-DF
   Ed Valeev, F. Pavosevic, A. Kumar             : LibInt (2-el integral package), F12 methods
   Garnet Chan, S. Sharma, J. Yang, R. Olivares  : DMRG
   Ulf Ekstrom                                   : XCFun DFT Library
   Mihaly Kallay                                 : mrcc  (arbitrary order and MRCC methods)
   Jiri Pittner, Ondrej Demel                    : Mk-CCSD
   Frank Weinhold                                : gennbo (NPA and NBO analysis)
   Christopher J. Cramer and Donald G. Truhlar   : smd solvation model
   Lars Goerigk                                  : TD-DFT with DH, B97 family of functionals
   V. Asgeirsson, H. Jonsson                     : NEB implementation
   FAccTs GmbH                                   : IRC, NEB, NEB-TS, DLPNO-Multilevel, CI-OPT
                                                   MM, QMMM, 2- and 3-layer-ONIOM, Crystal-QMMM,
                                                   LR-CPCM, SF, NACMEs, symmetry and pop. for TD-DFT,
                                                   nearIR, NL-DFT gradient (VV10), updates on ESD,
                                                   ML-optimized integration grids
   S Lehtola, MJT Oliveira, MAL Marques          : LibXC Library
   Liviu Ungur et al                             : ANISO software


 Your calculation uses the libint2 library for the computation of 2-el integrals
 For citations please refer to: http://libint.valeyev.net

 Your ORCA version has been built with support for libXC version: 5.1.0
 For citations please refer to: https://tddft.org/programs/libxc/

 This ORCA versions uses:
   CBLAS   interface :  Fast vector & matrix operations
   LAPACKE interface :  Fast linear algebra routines
   SCALAPACK package :  Parallel linear algebra routines
   Shared memory     :  Shared parallel matrices
   BLAS/LAPACK       :  OpenBLAS 0.3.15  USE64BITINT DYNAMIC_ARCH NO_AFFINITY SkylakeX SINGLE_THREADED
        Core in use  :  SkylakeX
   Copyright (c) 2011-2014, The OpenBLAS Project


Your calculation utilizes the atom-pairwise dispersion correction
with the zero-damping scheme (D30)
Cite in your paper:
S.Grimme, J.Antony, S.Ehrlich and H.Krieg, J.Chem.Phys., 132, (2010), 154104 
   

XCFun DFT library Copyright 2009-2010 Ulf Ekstrom and contributors.
See http://admol.org/xcfun for more information.
This is free software; see the source code for copying conditions.
There is ABSOLUTELY NO WARRANTY; not even for MERCHANTABILITY or FITNESS FOR A PARTICULAR PURPOSE.
For details see the documentation.
Scientific users of this library should cite U. Ekstrom, L. Visscher, R. Bast, A. J. Thorvaldsen and K. Ruud;
J.Chem.Theor.Comp. 2010, DOI: 10.1021/ct100117s
XCFun Version 0.99 

================================================================================

----- Orbital basis set information -----
Your calculation utilizes the basis: def2-TZVPD
   F. Weigend and R. Ahlrichs, Phys. Chem. Chem. Phys. 7, 3297 (2005).
   D. Rappoport and F. Furche, J. Chem. Phys. 133 134105 (2010).

----- AuxJ basis set information -----
Your calculation utilizes the auxiliary basis: def2/J
   F. Weigend, Phys. Chem. Chem. Phys. 8, 1057 (2006).

================================================================================
                                        WARNINGS
                       Please study these warnings very carefully!
================================================================================


WARNING: Geometry Optimization
  ===> : Switching off AutoStart
         For restart on a previous wavefunction, please use MOREAD

INFO   : the flag for use of the SHARK integral package has been found!

================================================================================
                                       INPUT FILE
================================================================================
NAME = /beegfs/scratch/ispackman/PFAS_EPR_calcs/benchmark/JChemEd_CF3_radical/CH3_radical_102.5_degrees_IN-PROGRESS/CH3_radical_102.5_degrees.inp
|  1> ! UKS TightSCF wB97x-D3 def2-TZVPD xyzfile opt freq
|  2> 
|  3> # CH3 radical 102.5 degrees fixed
|  4> 
|  5> %maxcore 1000
|  6> %pal
|  7> nprocs 18
|  8> end
|  9> 
| 10> %geom Constraints
| 11>         { A * 0 * C }
| 12>     end
| 13> end
| 14> * xyz 0 2
| 15> C 0.00 0.00 0.00
| 16> H 0.9725756751 0.0000000000 -0.4695706083
| 17> H -0.4862878376 0.8422752417 -0.4695706083
| 18> H -0.4862878376 -0.8422752417 -0.4695706083
| 19> **                         ****END OF INPUT****
================================================================================

                       *****************************
                       * Geometry Optimization Run *
                       *****************************

Geometry optimization settings:
Update method            Update   .... BFGS
Choice of coordinates    CoordSys .... Z-matrix Internals
Initial Hessian          InHess   .... Almoef's Model

Convergence Tolerances:
Energy Change            TolE     ....  5.0000e-06 Eh
Max. Gradient            TolMAXG  ....  3.0000e-04 Eh/bohr
RMS Gradient             TolRMSG  ....  1.0000e-04 Eh/bohr
Max. Displacement        TolMAXD  ....  4.0000e-03 bohr
RMS Displacement         TolRMSD  ....  2.0000e-03 bohr
Strict Convergence                ....  False
------------------------------------------------------------------------------
                        ORCA OPTIMIZATION COORDINATE SETUP
------------------------------------------------------------------------------

The optimization will be done in new redundant internal coordinates
Making redundant internal coordinates   ...  (new redundants) done
Evaluating the initial hessian          ...  (Almloef) done
Evaluating the coordinates              ...  done
Calculating the B-matrix                .... done
Calculating the G-matrix                .... done
Diagonalizing the G-matrix              .... done
Imposing constraints:
 Iter   0:  RMS(Cart)=    0.0000000000 RMS(Int)=    0.0000000000
CONVERGED
Will constrain atom 0 coordinate 1 
Will constrain atom 0 coordinate 2 
Will constrain atom 1 coordinate 2 
The first mode is                       ....    1
The number of degrees of freedom        ....    6
Storing new coordinates                 .... done

    -----------------------------------------------------------------
                    Redundant Internal Coordinates


    -----------------------------------------------------------------
         Definition                    Initial Value    Approx d2E/dq
    -----------------------------------------------------------------
      1. B(H   1,C   0)                  1.0800         0.373575   
      2. B(H   2,C   0)                  1.0800         0.373575   
      3. B(H   3,C   0)                  1.0800         0.373575   
      4. A(H   2,C   0,H   3)          102.5000         0.294224 C 
      5. A(H   1,C   0,H   2)          102.5000         0.294224 C 
      6. A(H   1,C   0,H   3)          102.5000         0.294224 C 
      7. I(H   1,H   3,H   2,C   0)     69.7698         0.002793   
    -----------------------------------------------------------------

Number of atoms                         .... 4
Number of degrees of freedom            .... 7

         *************************************************************
         *                GEOMETRY OPTIMIZATION CYCLE   1            *
         *************************************************************
---------------------------------
CARTESIAN COORDINATES (ANGSTROEM)
---------------------------------
  C      0.000000    0.000000    0.000000
  H      0.972576    0.000000   -0.469571
  H     -0.486288    0.842275   -0.469571
  H     -0.486288   -0.842275   -0.469571

----------------------------
CARTESIAN COORDINATES (A.U.)
----------------------------
  NO LB      ZA    FRAG     MASS         X           Y           Z
   0 C     6.0000    0    12.011    0.000000    0.000000    0.000000
   1 H     1.0000    0     1.008    1.837902    0.000000   -0.887360
   2 H     1.0000    0     1.008   -0.918951    1.591670   -0.887360
   3 H     1.0000    0     1.008   -0.918951   -1.591670   -0.887360

--------------------------------
INTERNAL COORDINATES (ANGSTROEM)
--------------------------------
 C      0   0   0     0.000000000000     0.00000000     0.00000000
 H      1   0   0     1.079999999989     0.00000000     0.00000000
 H      1   2   0     1.079999999980   102.50000000     0.00000000
 H      1   2   3     1.079999999980   102.50000000   106.03507864

---------------------------
INTERNAL COORDINATES (A.U.)
---------------------------
 C      0   0   0     0.000000000000     0.00000000     0.00000000
 H      1   0   0     2.040904224613     0.00000000     0.00000000
 H      1   2   0     2.040904224598   102.50000000     0.00000000
 H      1   2   3     2.040904224598   102.50000000   106.03507864

---------------------
BASIS SET INFORMATION
---------------------
There are 2 groups of distinct atoms

 Group   1 Type C   : 12s6p3d1f contracted to 6s3p3d1f pattern {621111/411/111/1}
 Group   2 Type H   : 5s2p contracted to 3s2p pattern {311/11}

Atom   0C    basis set group =>   1
Atom   1H    basis set group =>   2
Atom   2H    basis set group =>   2
Atom   3H    basis set group =>   2
---------------------------------
AUXILIARY/J BASIS SET INFORMATION
---------------------------------
There are 2 groups of distinct atoms

 Group   1 Type C   : 12s5p4d2f1g contracted to 6s4p3d1f1g pattern {711111/2111/211/2/1}
 Group   2 Type H   : 5s2p1d contracted to 3s1p1d pattern {311/2/1}

Atom   0C    basis set group =>   1
Atom   1H    basis set group =>   2
Atom   2H    basis set group =>   2
Atom   3H    basis set group =>   2


           ************************************************************
           *        Program running with 18 parallel MPI-processes    *
           *              working on a common directory               *
           ************************************************************
------------------------------------------------------------------------------
                           ORCA GTO INTEGRAL CALCULATION
                           -- RI-GTO INTEGRALS CHOSEN --
------------------------------------------------------------------------------
------------------------------------------------------------------------------
                   ___                                                        
                  /   \      - P O W E R E D   B Y -                         
                 /     \                                                     
                 |  |  |   _    _      __       _____    __    __             
                 |  |  |  | |  | |    /  \     |  _  \  |  |  /  |          
                  \  \/   | |  | |   /    \    | | | |  |  | /  /          
                 / \  \   | |__| |  /  /\  \   | |_| |  |  |/  /          
                |  |  |   |  __  | /  /__\  \  |    /   |      \           
                |  |  |   | |  | | |   __   |  |    \   |  |\   \          
                \     /   | |  | | |  |  |  |  | |\  \  |  | \   \       
                 \___/    |_|  |_| |__|  |__|  |_| \__\ |__|  \__/        
                                                                              
                      - O R C A' S   B I G   F R I E N D -                    
                                      &                                       
                       - I N T E G R A L  F E E D E R -                       
                                                                              
 v1 FN, 2020, v2 2021                                                         
------------------------------------------------------------------------------


Reading SHARK input file /beegfs/scratch/ispackman/PFAS_EPR_calcs/benchmark/JChemEd_CF3_radical/CH3_radical_102.5_degrees_IN-PROGRESS/CH3_radical_102.5_degrees.SHARKINP.tmp ... ok
----------------------
SHARK INTEGRAL PACKAGE
----------------------

Number of atoms                             ...      4
Number of basis functions                   ...     64
Number of shells                            ...     28
Maximum angular momentum                    ...      3
Integral batch strategy                     ... SHARK/LIBINT Hybrid
RI-J (if used) integral strategy            ... SPLIT-RIJ (Revised 2003 algorithm where possible)
Printlevel                                  ...      1
Contraction scheme used                     ... SEGMENTED contraction
Coulomb Range Separation                    ... NOT USED
Exchange Range Separation                   ... Long Range
   Mu parameter                             ...  0.250000
   Scaling (regular/separated)              ...  0.195728  0.804272
Finite Nucleus Model                        ... NOT USED
Auxiliary Coulomb fitting basis             ... AVAILABLE
   # of basis functions in Aux-J            ...     82
   # of shells in Aux-J                     ...     30
   Maximum angular momentum in Aux-J        ...      4
Auxiliary J/K fitting basis                 ... NOT available
Auxiliary Correlation fitting basis         ... NOT available
Auxiliary 'external' fitting basis          ... NOT available
Integral threshold                          ...     2.500000e-11
Primitive cut-off                           ...     2.500000e-12
Primitive pair pre-selection threshold      ...     2.500000e-12

Calculating pre-screening integrals         ... done (  0.0 sec) Dimension = 28
Organizing shell pair data                  ... done (  0.0 sec)
Shell pair information
Total number of shell pairs                 ...       406
Shell pairs after pre-screening             ...       406
Total number of primitive shell pairs       ...       977
Primitive shell pairs kept                  ...       947
          la=0 lb=0:    120 shell pairs
          la=1 lb=0:    135 shell pairs
          la=1 lb=1:     45 shell pairs
          la=2 lb=0:     45 shell pairs
          la=2 lb=1:     27 shell pairs
          la=2 lb=2:      6 shell pairs
          la=3 lb=0:     15 shell pairs
          la=3 lb=1:      9 shell pairs
          la=3 lb=2:      3 shell pairs
          la=3 lb=3:      1 shell pairs

Calculating one electron integrals          ... done (  0.0 sec)
Calculating RI/J V-Matrix + Cholesky decomp.... done (  0.0 sec)
Calculating Nuclear repulsion               ... done (  0.0 sec) ENN=      9.762026816383 Eh

SHARK setup successfully completed in   0.3 seconds

Maximum memory used throughout the entire GTOINT-calculation: 14.0 MB


           ************************************************************
           *        Program running with 18 parallel MPI-processes    *
           *              working on a common directory               *
           ************************************************************
-------------------------------------------------------------------------------
                                 ORCA SCF
-------------------------------------------------------------------------------

------------
SCF SETTINGS
------------
Hamiltonian:
 Density Functional     Method          .... DFT(GTOs)
 Exchange Functional    Exchange        .... WB97X-D3
 Correlation Functional Correlation     .... WB97X-D3
 Gradients option       PostSCFGGA      .... off
 Hybrid DFT is turned on
   Fraction HF Exchange ScalHFX         ....  0.195728
   Scaling of DF-GGA-X  ScalDFX         ....  0.000000
   Scaling of DF-GGA-C  ScalDFC         ....  1.000000
   Scaling of DF-LDA-C  ScalLDAC        ....  1.000000
   Perturbative correction              ....  0.000000
   Density functional embedding theory  .... OFF
 Long-range corrected/Screened/Range-Separated Hybrid DFT is turned on
   Amount of maximum screened exact exchange              ....  0.804272
   Range separation parameter mu (erf(mu*r12)/r12)        ....  0.250000
 RI-approximation to the Coulomb term is turned on
   Number of AuxJ basis functions       .... 82
   RIJ-COSX (HFX calculated with COS-X)).... on


General Settings:
 Integral files         IntName         .... /beegfs/scratch/ispackman/PFAS_EPR_calcs/benchmark/JChemEd_CF3_radical/CH3_radical_102.5_degrees_IN-PROGRESS/CH3_radical_102.5_degrees
 Hartree-Fock type      HFTyp           .... UHF
 Total Charge           Charge          ....    0
 Multiplicity           Mult            ....    2
 Number of Electrons    NEL             ....    9
 Basis Dimension        Dim             ....   64
 Nuclear Repulsion      ENuc            ....      9.7620268164 Eh

Convergence Acceleration:
 DIIS                   CNVDIIS         .... on
   Start iteration      DIISMaxIt       ....    12
   Startup error        DIISStart       ....  0.200000
   # of expansion vecs  DIISMaxEq       ....     5
   Bias factor          DIISBfac        ....   1.050
   Max. coefficient     DIISMaxC        ....  10.000
 Trust-Rad. Augm. Hess. CNVTRAH         .... auto
   Auto Start mean grad. ratio tolernc. ....  1.125000
   Auto Start start iteration           ....    20
   Auto Start num. interpolation iter.  ....    10
   Max. Number of Micro iterations      ....    16
   Max. Number of Macro iterations      .... Maxiter - #DIIS iter
   Number of Davidson start vectors     ....     2
   Converg. threshold I  (grad. norm)   ....   1.000e-05
   Converg. threshold II (energy diff.) ....   1.000e-08
   Grad. Scal. Fac. for Micro threshold ....   0.100
   Minimum threshold for Micro iter.    ....   0.010
   NR start threshold (gradient norm)   ....   0.001
   Initial trust radius                 ....   0.400
   Minimum AH scaling param. (alpha)    ....   1.000
   Maximum AH scaling param. (alpha)    .... 1000.000
   Orbital update algorithm             .... Taylor
   White noise on init. David. guess    .... on
   Maximum white noise                  ....   0.010
   Quad. conv. algorithm                .... NR
 SOSCF                  CNVSOSCF        .... off
 Level Shifting         CNVShift        .... on
   Level shift para.    LevelShift      ....    0.2500
   Turn off err/grad.   ShiftErr        ....    0.0010
 Zerner damping         CNVZerner       .... off
 Static damping         CNVDamp         .... on
   Fraction old density DampFac         ....    0.7000
   Max. Damping (<1)    DampMax         ....    0.9800
   Min. Damping (>=0)   DampMin         ....    0.0000
   Turn off err/grad.   DampErr         ....    0.1000
 Fernandez-Rico         CNVRico         .... off

SCF Procedure:
 Maximum # iterations   MaxIter         ....   125
 SCF integral mode      SCFMode         .... Direct
   Integral package                     .... SHARK and LIBINT hybrid scheme
 Reset frequency        DirectResetFreq ....    20
 Integral Threshold     Thresh          ....  2.500e-11 Eh
 Primitive CutOff       TCut            ....  2.500e-12 Eh

Convergence Tolerance:
 Convergence Check Mode ConvCheckMode   .... Total+1el-Energy
 Convergence forced     ConvForced      .... 0
 Energy Change          TolE            ....  1.000e-08 Eh
 1-El. energy change                    ....  1.000e-05 Eh
 DIIS Error             TolErr          ....  5.000e-07


Diagonalization of the overlap matrix:
Smallest eigenvalue                        ... 4.259e-05
Time for diagonalization                   ...    0.002 sec
Threshold for overlap eigenvalues          ... 1.000e-08
Number of eigenvalues below threshold      ... 0
Time for construction of square roots      ...    0.015 sec
Total time needed                          ...    0.018 sec

Time for model grid setup =    0.039 sec

------------------------------
INITIAL GUESS: MODEL POTENTIAL
------------------------------
Loading Hartree-Fock densities                     ... done
Calculating cut-offs                               ... done
Initializing the effective Hamiltonian             ... done
Setting up the integral package (SHARK)            ... done
Starting the Coulomb interaction                   ... done (   0.1 sec)
Reading the grid                                   ... done
Mapping shells                                     ... done
Starting the XC term evaluation                    ... done (   0.0 sec)
  promolecular density results
     # of electrons  =      8.997908339
     EX              =     -5.936032545
     EC              =     -0.260117419
     EX+EC           =     -6.196149964
Transforming the Hamiltonian                       ... done (   0.0 sec)
Diagonalizing the Hamiltonian                      ... done (   0.0 sec)
Back transforming the eigenvectors                 ... done (   0.0 sec)
Now organizing SCF variables                       ... done
                      ------------------
                      INITIAL GUESS DONE (   0.2 sec)
                      ------------------
-------------------
DFT GRID GENERATION
-------------------

General Integration Accuracy     IntAcc      ... 4.388
Radial Grid Type                 RadialGrid  ... OptM3 with GC (2021)
Angular Grid (max. ang.)         AngularGrid ... 4 (Lebedev-302)
Angular grid pruning method      GridPruning ... 4 (adaptive)
Weight generation scheme         WeightScheme... Becke
Basis function cutoff            BFCut       ... 1.0000e-11
Integration weight cutoff        WCut        ... 1.0000e-14
Angular grids for H and He will be reduced by one unit
Partially contracted basis set               ... off
Rotationally invariant grid construction     ... off

Total number of grid points                  ...    17039
Total number of batches                      ...      269
Average number of points per batch           ...       63
Average number of grid points per atom       ...     4260
Time for grid setup =    0.083 sec

--------------------
COSX GRID GENERATION
--------------------

GRIDX 1
-------
General Integration Accuracy     IntAcc      ... 3.816
Radial Grid Type                 RadialGrid  ... OptM3 with GC (2021)
Angular Grid (max. ang.)         AngularGrid ... 1 (Lebedev-50)
Angular grid pruning method      GridPruning ... 4 (adaptive)
Weight generation scheme         WeightScheme... Becke
Basis function cutoff            BFCut       ... 1.0000e-11
Integration weight cutoff        WCut        ... 1.0000e-14
Angular grids for H and He will be reduced by one unit
Partially contracted basis set               ... on
Rotationally invariant grid construction     ... off

Total number of grid points                  ...     2149
Total number of batches                      ...       36
Average number of points per batch           ...       59
Average number of grid points per atom       ...      537
UseSFitting                                  ... on

GRIDX 2
-------
General Integration Accuracy     IntAcc      ... 4.020
Radial Grid Type                 RadialGrid  ... OptM3 with GC (2021)
Angular Grid (max. ang.)         AngularGrid ... 2 (Lebedev-110)
Angular grid pruning method      GridPruning ... 4 (adaptive)
Weight generation scheme         WeightScheme... Becke
Basis function cutoff            BFCut       ... 1.0000e-11
Integration weight cutoff        WCut        ... 1.0000e-14
Angular grids for H and He will be reduced by one unit
Partially contracted basis set               ... on
Rotationally invariant grid construction     ... off

Total number of grid points                  ...     5038
Total number of batches                      ...       80
Average number of points per batch           ...       62
Average number of grid points per atom       ...     1260
UseSFitting                                  ... on

GRIDX 3
-------
General Integration Accuracy     IntAcc      ... 4.338
Radial Grid Type                 RadialGrid  ... OptM3 with GC (2021)
Angular Grid (max. ang.)         AngularGrid ... 3 (Lebedev-194)
Angular grid pruning method      GridPruning ... 4 (adaptive)
Weight generation scheme         WeightScheme... Becke
Basis function cutoff            BFCut       ... 1.0000e-11
Integration weight cutoff        WCut        ... 1.0000e-14
Angular grids for H and He will be reduced by one unit
Partially contracted basis set               ... on
Rotationally invariant grid construction     ... off

Total number of grid points                  ...    11708
Total number of batches                      ...      185
Average number of points per batch           ...       63
Average number of grid points per atom       ...     2927
UseSFitting                                  ... on

Time for X-Grid setup             =    0.222 sec

--------------
SCF ITERATIONS
--------------
ITER       Energy         Delta-E        Max-DP      RMS-DP      [F,P]     Damp
               ***  Starting incremental Fock matrix formation  ***
  0    -39.7777729451   0.000000000000 0.06056021  0.00118374  0.0762662 0.7000
  1    -39.7914570155  -0.013684070395 0.05657567  0.00104605  0.0489559 0.7000
                               ***Turning on DIIS***
  2    -39.7992098688  -0.007752853239 0.12285438  0.00230342  0.0282893 0.0000
  3    -39.8126770467  -0.013467177942 0.03702658  0.00070085  0.0192486 0.0000
  4    -39.8142080045  -0.001530957820 0.01291946  0.00022222  0.0033431 0.0000
  5    -39.8142743440  -0.000066339505 0.01138263  0.00018802  0.0016279 0.0000
  6    -39.8142961239  -0.000021779828 0.01198045  0.00019148  0.0006246 0.0000
               *** Restarting incremental Fock matrix formation ***
                                   *** Resetting DIIS ***
  7    -39.8143065673  -0.000010443470 0.00123427  0.00001962  0.0000822 0.0000
  8    -39.8143067090  -0.000000141629 0.00071370  0.00001142  0.0000354 0.0000
  9    -39.8143067511  -0.000000042179 0.00002329  0.00000079  0.0000149 0.0000
 10    -39.8143067533  -0.000000002199 0.00000788  0.00000026  0.0000059 0.0000
                 **** Energy Check signals convergence ****

               *****************************************************
               *                     SUCCESS                       *
               *           SCF CONVERGED AFTER  11 CYCLES          *
               *****************************************************

Old exchange energy                            =     -2.173646326 Eh
New exchange energy                            =     -2.173649471 Eh
Exchange energy change after final integration =     -0.000003145 Eh
Total energy after final integration           =    -39.814309899 Eh
Final COS-X integration done in                =     0.116 sec

----------------
TOTAL SCF ENERGY
----------------

Total Energy       :          -39.81430990 Eh           -1083.40245 eV

Components:
Nuclear Repulsion  :            9.76202682 Eh             265.63825 eV
Electronic Energy  :          -49.57633671 Eh           -1349.04071 eV
One Electron Energy:          -71.77607587 Eh           -1953.12632 eV
Two Electron Energy:           22.19973915 Eh             604.08561 eV
Max COSX asymmetry :            0.00000020 Eh               0.00001 eV

Virial components:
Potential Energy   :          -79.47832296 Eh           -2162.71512 eV
Kinetic Energy     :           39.66401306 Eh            1079.31267 eV
Virial Ratio       :            2.00378925


DFT components:
N(Alpha)           :        4.999997367393 electrons
N(Beta)            :        4.000000369884 electrons
N(Total)           :        8.999997737277 electrons
E(XC)              :       -4.316626227447 Eh       
DFET-embed. en.    :        0.000000000000 Eh       

---------------
SCF CONVERGENCE
---------------

  Last Energy change         ...    4.9596e-12  Tolerance :   1.0000e-08
  Last MAX-Density change    ...    0.0000e+00  Tolerance :   1.0000e-07
  Last RMS-Density change    ...    0.0000e+00  Tolerance :   5.0000e-09
  Last DIIS Error            ...    1.2649e-06  Tolerance :   5.0000e-07

             **** THE GBW FILE WAS UPDATED (/beegfs/scratch/ispackman/PFAS_EPR_calcs/benchmark/JChemEd_CF3_radical/CH3_radical_102.5_degrees_IN-PROGRESS/CH3_radical_102.5_degrees.gbw) ****
             **** DENSITY /beegfs/scratch/ispackman/PFAS_EPR_calcs/benchmark/JChemEd_CF3_radical/CH3_radical_102.5_degrees_IN-PROGRESS/CH3_radical_102.5_degrees.scfp WAS UPDATED ****
             **** ENERGY FILE WAS UPDATED (/beegfs/scratch/ispackman/PFAS_EPR_calcs/benchmark/JChemEd_CF3_radical/CH3_radical_102.5_degrees_IN-PROGRESS/CH3_radical_102.5_degrees.en.tmp) ****
----------------------
UHF SPIN CONTAMINATION
----------------------

Warning: in a DFT calculation there is little theoretical justification to 
         calculate <S**2> as in Hartree-Fock theory. We will do it anyways
         but you should keep in mind that the values have only limited relevance

Expectation value of <S**2>     :     0.752969
Ideal value S*(S+1) for S=0.5   :     0.750000
Deviation                       :     0.002969

             **** THE GBW FILE WAS UPDATED (/beegfs/scratch/ispackman/PFAS_EPR_calcs/benchmark/JChemEd_CF3_radical/CH3_radical_102.5_degrees_IN-PROGRESS/CH3_radical_102.5_degrees.gbw) ****
             **** DENSITY /beegfs/scratch/ispackman/PFAS_EPR_calcs/benchmark/JChemEd_CF3_radical/CH3_radical_102.5_degrees_IN-PROGRESS/CH3_radical_102.5_degrees.scfp WAS UPDATED ****
----------------
ORBITAL ENERGIES
----------------
                 SPIN UP ORBITALS
  NO   OCC          E(Eh)            E(eV) 
   0   1.0000     -10.293656      -280.1046 
   1   1.0000      -0.817565       -22.2471 
   2   1.0000      -0.498331       -13.5603 
   3   1.0000      -0.498295       -13.5593 
   4   1.0000      -0.379495       -10.3266 
   5   0.0000       0.075511         2.0548 
   6   0.0000       0.161590         4.3971 
   7   0.0000       0.161598         4.3973 
   8   0.0000       0.180990         4.9250 
   9   0.0000       0.194551         5.2940 
  10   0.0000       0.194555         5.2941 
  11   0.0000       0.231197         6.2912 
  12   0.0000       0.253344         6.8938 
  13   0.0000       0.253347         6.8939 
  14   0.0000       0.315466         8.5843 
  15   0.0000       0.353639         9.6230 
  16   0.0000       0.353650         9.6233 
  17   0.0000       0.359856         9.7922 
  18   0.0000       0.378121        10.2892 
  19   0.0000       0.383974        10.4485 
  20   0.0000       0.383978        10.4486 
  21   0.0000       0.400796        10.9062 
  22   0.0000       0.400804        10.9064 
  23   0.0000       0.533467        14.5164 
  24   0.0000       0.559226        15.2173 
  25   0.0000       0.559235        15.2175 
  26   0.0000       0.611419        16.6376 
  27   0.0000       0.783531        21.3210 
  28   0.0000       0.791579        21.5400 
  29   0.0000       0.791585        21.5401 
  30   0.0000       0.870386        23.6844 
  31   0.0000       0.870396        23.6847 
  32   0.0000       0.980654        26.6850 
  33   0.0000       1.158294        31.5188 
  34   0.0000       1.158311        31.5193 
  35   0.0000       1.645309        44.7711 
  36   0.0000       1.741792        47.3966 
  37   0.0000       1.741885        47.3991 
  38   0.0000       1.752348        47.6838 
  39   0.0000       1.796419        48.8830 
  40   0.0000       1.936046        52.6825 
  41   0.0000       1.936084        52.6835 
  42   0.0000       2.201860        59.9157 
  43   0.0000       2.245741        61.1097 
  44   0.0000       2.245831        61.1122 
  45   0.0000       2.362996        64.3004 
  46   0.0000       2.630009        71.5662 
  47   0.0000       2.630025        71.5666 
  48   0.0000       2.722762        74.0901 
  49   0.0000       2.722872        74.0931 
  50   0.0000       2.836714        77.1909 
  51   0.0000       3.041030        82.7506 
  52   0.0000       3.156726        85.8989 
  53   0.0000       3.156796        85.9008 
  54   0.0000       3.295843        89.6844 
  55   0.0000       3.295880        89.6855 
  56   0.0000       3.339145        90.8627 
  57   0.0000       3.407631        92.7264 
  58   0.0000       3.707246       100.8793 
  59   0.0000       3.707303       100.8808 
  60   0.0000       4.418704       120.2390 
  61   0.0000       4.451926       121.1431 
  62   0.0000       4.452210       121.1508 
  63   0.0000      22.182457       603.6153 

                 SPIN DOWN ORBITALS
  NO   OCC          E(Eh)            E(eV) 
   0   1.0000     -10.282263      -279.7946 
   1   1.0000      -0.780941       -21.2505 
   2   1.0000      -0.483160       -13.1475 
   3   1.0000      -0.483154       -13.1473 
   4   0.0000      -0.028039        -0.7630 
   5   0.0000       0.084139         2.2895 
   6   0.0000       0.166541         4.5318 
   7   0.0000       0.166546         4.5319 
   8   0.0000       0.200592         5.4584 
   9   0.0000       0.200601         5.4586 
  10   0.0000       0.217353         5.9145 
  11   0.0000       0.246837         6.7168 
  12   0.0000       0.257640         7.0107 
  13   0.0000       0.257641         7.0108 
  14   0.0000       0.325688         8.8624 
  15   0.0000       0.368278        10.0214 
  16   0.0000       0.368284        10.0215 
  17   0.0000       0.371617        10.1122 
  18   0.0000       0.378011        10.2862 
  19   0.0000       0.391383        10.6501 
  20   0.0000       0.391384        10.6501 
  21   0.0000       0.409867        11.1530 
  22   0.0000       0.409870        11.1531 
  23   0.0000       0.562967        15.3191 
  24   0.0000       0.562978        15.3194 
  25   0.0000       0.569068        15.4851 
  26   0.0000       0.620774        16.8921 
  27   0.0000       0.791629        21.5413 
  28   0.0000       0.803494        21.8642 
  29   0.0000       0.803497        21.8643 
  30   0.0000       0.892013        24.2729 
  31   0.0000       0.892028        24.2733 
  32   0.0000       0.999633        27.2014 
  33   0.0000       1.168357        31.7926 
  34   0.0000       1.168380        31.7932 
  35   0.0000       1.713878        46.6370 
  36   0.0000       1.750891        47.6442 
  37   0.0000       1.751012        47.6475 
  38   0.0000       1.753566        47.7169 
  39   0.0000       1.810998        49.2798 
  40   0.0000       1.952058        53.1182 
  41   0.0000       1.952124        53.1200 
  42   0.0000       2.205663        60.0191 
  43   0.0000       2.256981        61.4156 
  44   0.0000       2.257052        61.4175 
  45   0.0000       2.377907        64.7061 
  46   0.0000       2.635014        71.7024 
  47   0.0000       2.635023        71.7026 
  48   0.0000       2.747335        74.7588 
  49   0.0000       2.747387        74.7602 
  50   0.0000       2.860117        77.8277 
  51   0.0000       3.087496        84.0150 
  52   0.0000       3.204678        87.2037 
  53   0.0000       3.204738        87.2053 
  54   0.0000       3.332163        90.6728 
  55   0.0000       3.332253        90.6752 
  56   0.0000       3.359649        91.4207 
  57   0.0000       3.439268        93.5872 
  58   0.0000       3.751581       102.0857 
  59   0.0000       3.751607       102.0864 
  60   0.0000       4.443522       120.9144 
  61   0.0000       4.474113       121.7468 
  62   0.0000       4.474413       121.7550 
  63   0.0000      22.202525       604.1614 

                    ********************************
                    * MULLIKEN POPULATION ANALYSIS *
                    ********************************

--------------------------------------------
MULLIKEN ATOMIC CHARGES AND SPIN POPULATIONS
--------------------------------------------
   0 C :   -0.693562    0.882925
   1 H :    0.230869    0.038984
   2 H :    0.231346    0.039046
   3 H :    0.231347    0.039046
Sum of atomic charges         :    0.0000000
Sum of atomic spin populations:    1.0000000

-----------------------------------------------------
MULLIKEN REDUCED ORBITAL CHARGES AND SPIN POPULATIONS
-----------------------------------------------------
CHARGE
  0 C s       :     3.332458  s :     3.332458
      pz      :     0.948829  p :     3.310909
      px      :     1.180990
      py      :     1.181091
      dz2     :     0.000410  d :     0.049487
      dxz     :     0.016272
      dyz     :     0.016292
      dx2y2   :     0.008247
      dxy     :     0.008267
      f0      :     0.000393  f :     0.000707
      f+1     :     0.000018
      f-1     :     0.000018
      f+2     :    -0.000084
      f-2     :    -0.000079
      f+3     :     0.000442
      f-3     :     0.000000
  1 H s       :     0.724654  s :     0.724654
      pz      :     0.022541  p :     0.044478
      px      :     0.017966
      py      :     0.003971
  2 H s       :     0.724302  s :     0.724302
      pz      :     0.022457  p :     0.044352
      px      :     0.007463
      py      :     0.014432
  3 H s       :     0.724301  s :     0.724301
      pz      :     0.022457  p :     0.044352
      px      :     0.007463
      py      :     0.014432

SPIN
  0 C s       :     0.019892  s :     0.019892
      pz      :     0.865130  p :     0.873533
      px      :     0.004195
      py      :     0.004207
      dz2     :    -0.001111  d :    -0.009815
      dxz     :    -0.004044
      dyz     :    -0.004040
      dx2y2   :    -0.000315
      dxy     :    -0.000305
      f0      :    -0.000450  f :    -0.000685
      f+1     :    -0.000036
      f-1     :    -0.000036
      f+2     :    -0.000019
      f-2     :    -0.000017
      f+3     :    -0.000127
      f-3     :    -0.000000
  1 H s       :     0.016335  s :     0.016335
      pz      :     0.019644  p :     0.022649
      px      :     0.000072
      py      :     0.002933
  2 H s       :     0.016463  s :     0.016463
      pz      :     0.019580  p :     0.022583
      px      :     0.002214
      py      :     0.000788
  3 H s       :     0.016463  s :     0.016463
      pz      :     0.019580  p :     0.022583
      px      :     0.002214
      py      :     0.000788


                     *******************************
                     * LOEWDIN POPULATION ANALYSIS *
                     *******************************

-------------------------------------------
LOEWDIN ATOMIC CHARGES AND SPIN POPULATIONS
-------------------------------------------
   0 C :    0.056314    0.835078
   1 H :   -0.018802    0.054972
   2 H :   -0.018756    0.054975
   3 H :   -0.018756    0.054975

----------------------------------------------------
LOEWDIN REDUCED ORBITAL CHARGES AND SPIN POPULATIONS
----------------------------------------------------
CHARGE
  0 C s       :     2.908479  s :     2.908479
      pz      :     0.769331  p :     2.903886
      px      :     1.067275
      py      :     1.067280
      dz2     :     0.004832  d :     0.120322
      dxz     :     0.026738
      dyz     :     0.026743
      dx2y2   :     0.031004
      dxy     :     0.031005
      f0      :     0.001442  f :     0.010999
      f+1     :     0.000017
      f-1     :     0.000017
      f+2     :     0.003490
      f-2     :     0.003493
      f+3     :     0.002539
      f-3     :     0.000000
  1 H s       :     0.752682  s :     0.752682
      pz      :     0.070079  p :     0.266120
      px      :     0.121543
      py      :     0.074498
  2 H s       :     0.752655  s :     0.752655
      pz      :     0.070059  p :     0.266101
      px      :     0.086251
      py      :     0.109792
  3 H s       :     0.752655  s :     0.752655
      pz      :     0.070059  p :     0.266101
      px      :     0.086251
      py      :     0.109792

SPIN
  0 C s       :     0.103237  s :     0.103237
      pz      :     0.702997  p :     0.741453
      px      :     0.019243
      py      :     0.019213
      dz2     :     0.000872  d :    -0.009345
      dxz     :    -0.003468
      dyz     :    -0.003471
      dx2y2   :    -0.001646
      dxy     :    -0.001632
      f0      :    -0.000210  f :    -0.000266
      f+1     :     0.000004
      f-1     :     0.000005
      f+2     :    -0.000185
      f-2     :    -0.000183
      f+3     :     0.000302
      f-3     :    -0.000000
  1 H s       :    -0.002104  s :    -0.002104
      pz      :     0.054911  p :     0.057076
      px      :     0.003027
      py      :    -0.000861
  2 H s       :    -0.002112  s :    -0.002112
      pz      :     0.054915  p :     0.057087
      px      :     0.000108
      py      :     0.002064
  3 H s       :    -0.002112  s :    -0.002112
      pz      :     0.054915  p :     0.057087
      px      :     0.000108
      py      :     0.002064


                      *****************************
                      * MAYER POPULATION ANALYSIS *
                      *****************************

  NA   - Mulliken gross atomic population
  ZA   - Total nuclear charge
  QA   - Mulliken gross atomic charge
  VA   - Mayer's total valence
  BVA  - Mayer's bonded valence
  FA   - Mayer's free valence

  ATOM       NA         ZA         QA         VA         BVA        FA
  0 C      6.6936     6.0000    -0.6936     3.8155     3.0285     0.7870
  1 H      0.7691     1.0000     0.2309     1.0116     1.0102     0.0014
  2 H      0.7687     1.0000     0.2313     1.0110     1.0097     0.0014
  3 H      0.7687     1.0000     0.2313     1.0110     1.0097     0.0014

  Mayer bond orders larger than 0.100000
B(  0-C ,  1-H ) :   1.0098 B(  0-C ,  2-H ) :   1.0094 B(  0-C ,  3-H ) :   1.0094 


-------
TIMINGS
-------

Total SCF time: 0 days 0 hours 0 min 7 sec 

Total time                  ....       7.383 sec
Sum of individual times     ....       6.750 sec  ( 91.4%)

Fock matrix formation       ....       5.646 sec  ( 76.5%)
  Split-RI-J                ....       0.778 sec  ( 13.8% of F)
  Chain of spheres X        ....       1.286 sec  ( 22.8% of F)
  XC integration            ....       1.139 sec  ( 20.2% of F)
    Basis function eval.    ....       0.054 sec  (  4.7% of XC)
    Density eval.           ....       0.051 sec  (  4.5% of XC)
    XC-Functional eval.     ....       0.056 sec  (  4.9% of XC)
    XC-Potential eval.      ....       0.076 sec  (  6.7% of XC)
Diagonalization             ....       0.157 sec  (  2.1%)
Density matrix formation    ....       0.009 sec  (  0.1%)
Population analysis         ....       0.130 sec  (  1.8%)
Initial guess               ....       0.124 sec  (  1.7%)
Orbital Transformation      ....       0.000 sec  (  0.0%)
Orbital Orthonormalization  ....       0.000 sec  (  0.0%)
DIIS solution               ....       0.341 sec  (  4.6%)
Grid generation             ....       0.344 sec  (  4.7%)

Maximum memory used throughout the entire SCF-calculation: 58.5 MB


-------------------------------------------------------------------------------
                          DFT DISPERSION CORRECTION                            
                                                                               
                              DFTD3 V3.1  Rev 1                                
                              USING zero damping                               
-------------------------------------------------------------------------------
The omegaB97X-D3 functional is recognized. Fit by Chai et al.
Active option DFTDOPT                   ...         3   

molecular C6(AA) [au] = 106.958976 


            DFT-D V3
 parameters
 s6 scaling factor         :     1.0000 
 rs6 scaling factor        :     1.2810 
 s8 scaling factor         :     1.0000 
 rs8 scaling factor        :     1.0940 
 Damping factor alpha6     :    14.0000 
 Damping factor alpha8     :    16.0000 
 ad hoc parameters k1-k3   :    16.0000     1.3333    -4.0000 

 Edisp/kcal,au: -0.005068917615  -0.000008077834 
 E6   /kcal   :  -0.000788734 
 E8   /kcal   :  -0.004280183 
 % E8         :  84.439787022 

-------------------------   ----------------
Dispersion correction           -0.000008078
-------------------------   ----------------


-------------------------   --------------------
FINAL SINGLE POINT ENERGY       -39.814317976404
-------------------------   --------------------



           ************************************************************
           *        Program running with 18 parallel MPI-processes    *
           *              working on a common directory               *
           ************************************************************
------------------------------------------------------------------------------
                         ORCA SCF GRADIENT CALCULATION
------------------------------------------------------------------------------

 ... reading COSX grid (gridx3)
Gradient of the Kohn-Sham DFT energy:
Kohn-Sham wavefunction type      ... UKS
Hartree-Fock exchange scaling    ...    0.196
Number of operators              ...    2
Number of atoms                  ...    4
Basis set dimensions             ...   64
Integral neglect threshold       ... 2.5e-11
Integral primitive cutoff        ... 2.5e-12
SHARK Integral package           ... ON

Nuc. rep. gradient       (SHARK) ... done (  0.0 sec)
HCore & Overlap gradient (SHARK) ... done (  0.0 sec)
RI-J gradient            (SHARK) ... done (  0.1 sec)
COSX-gradient                    ... done (  0.1 sec)
Exchange-correlation gradient    ... done
Dispersion correction            ... done

------------------
CARTESIAN GRADIENT
------------------

WARNING: THERE ARE 3 CONSTRAINED CARTESIAN COORDINATES
   1   C   :   -0.000035909   -0.000000059    0.058122893
   2   H   :   -0.020861359    0.000000007   -0.019412270
   3   H   :    0.010403965   -0.018072894   -0.019364708
   4   H   :    0.010403973    0.018072900   -0.019364680

Difference to translation invariance:
           :   -0.0000893295   -0.0000000466   -0.0000187642

Difference to rotation invariance:
           :   -0.0000000335    0.0001348436    0.0000000202

Norm of the cartesian gradient     ...    0.0762235629
RMS gradient                       ...    0.0220038473
MAX gradient                       ...    0.0581228927

-------
TIMINGS
-------

Total SCF gradient time            ...        0.570 sec

One electron gradient       ....       0.006 sec  (  1.1%)
RI-J Coulomb gradient       ....       0.116 sec  ( 20.3%)
COSX gradient               ....       0.112 sec  ( 19.7%)
XC gradient                 ....       0.058 sec  ( 10.2%)

Maximum memory used throughout the entire SCFGRAD-calculation: 33.6 MB
------------------------------------------------------------------------------
                         ORCA GEOMETRY RELAXATION STEP
------------------------------------------------------------------------------

Reading the OPT-File                    .... done
Getting information on internals        .... done
Copying old internal coords+grads       .... done
Making the new internal coordinates     .... (new redundants).... done
Validating the new internal coordinates .... (new redundants).... done
Calculating the B-matrix                .... done
Calculating the G,G- and P matrices     .... done
Transforming gradient to internals      .... done
Projecting the internal gradient        .... done
Number of atoms                         ....   4
Number of internal coordinates          ....   7
Current Energy                          ....   -39.814317976 Eh
Current gradient norm                   ....     0.076223563 Eh/bohr
Maximum allowed component of the step   ....  0.300
Current trust radius                    ....  0.300
Evaluating the initial hessian          ....  (Almloef) done
Projecting the Hessian                  .... done
Forming the augmented Hessian           .... done
Diagonalizing the augmented Hessian     .... done
Last element of RFO vector              ....  0.998854260
Lowest eigenvalues of augmented Hessian:
 -0.000859485  0.373574723  0.373574723  0.374434208 1000.000000000
Length of the computed step             ....  0.047910583
The final length of the internal step   ....  0.047910583
Converting the step to cartesian space:
 Initial RMS(Int)=    0.0181084981
Transforming coordinates:
 Iter   0:  RMS(Cart)=    0.0128126794 RMS(Int)=    0.0181084981
 Iter   1:  RMS(Cart)=    0.0000000001 RMS(Int)=    0.0000000002
Imposing constraints:
 Iter   0:  RMS(Cart)=    0.0000000010 RMS(Int)=    0.0000000018
CONVERGED
done
Storing new coordinates                 .... done

                                .--------------------.
          ----------------------|Geometry convergence|-------------------------
          Item                value                   Tolerance       Converged
          ---------------------------------------------------------------------
          RMS gradient        0.0067804411            0.0001000000      NO
          MAX gradient        0.0103679231            0.0003000000      NO
          RMS step            0.0181084981            0.0020000000      NO
          MAX step            0.0276895722            0.0040000000      NO
          ........................................................
          Max(Bonds)      0.0147      Max(Angles)    0.00
          Max(Dihed)        0.00      Max(Improp)    0.00
          ---------------------------------------------------------------------

The optimization has not yet converged - more geometry cycles are needed


    ---------------------------------------------------------------------------
                         Redundant Internal Coordinates
                            (Angstroem and degrees)

        Definition                    Value    dE/dq     Step     New-Value
    ----------------------------------------------------------------------------
     1. B(H   1,C   0)                1.0800 -0.010336  0.0146    1.0946   
     2. B(H   2,C   0)                1.0800 -0.010368  0.0147    1.0947   
     3. B(H   3,C   0)                1.0800 -0.010368  0.0147    1.0947   
     4. A(H   2,C   0,H   3)          102.50 -0.036963   -0.00    102.50 C 
     5. A(H   1,C   0,H   2)          102.50 -0.015923   -0.00    102.50 C 
     6. A(H   1,C   0,H   3)          102.50 -0.015923    0.00    102.50 C 
     7. I(H   1,H   3,H   2,C   0)     69.77  0.034955   -0.00     69.77   
    ----------------------------------------------------------------------------

         *************************************************************
         *                GEOMETRY OPTIMIZATION CYCLE   2            *
         *************************************************************
---------------------------------
CARTESIAN COORDINATES (ANGSTROEM)
---------------------------------
  C      0.000013    0.000000    0.004773
  H      0.985739    0.000000   -0.471157
  H     -0.492876    0.853703   -0.471164
  H     -0.492876   -0.853703   -0.471164

----------------------------
CARTESIAN COORDINATES (A.U.)
----------------------------
  NO LB      ZA    FRAG     MASS         X           Y           Z
   0 C     6.0000    0    12.011    0.000025    0.000000    0.009020
   1 H     1.0000    0     1.008    1.862778    0.000000   -0.890358
   2 H     1.0000    0     1.008   -0.931401    1.613264   -0.890371
   3 H     1.0000    0     1.008   -0.931401   -1.613264   -0.890371

--------------------------------
INTERNAL COORDINATES (ANGSTROEM)
--------------------------------
 C      0   0   0     0.000000000000     0.00000000     0.00000000
 H      1   0   0     1.094607637051     0.00000000     0.00000000
 H      1   2   0     1.094652636509   102.49999994     0.00000000
 H      1   2   3     1.094652690522   102.49999994   106.03507844

---------------------------
INTERNAL COORDINATES (A.U.)
---------------------------
 C      0   0   0     0.000000000000     0.00000000     0.00000000
 H      1   0   0     2.068508658126     0.00000000     0.00000000
 H      1   2   0     2.068593694776   102.49999994     0.00000000
 H      1   2   3     2.068593796846   102.49999994   106.03507844



           ************************************************************
           *        Program running with 18 parallel MPI-processes    *
           *              working on a common directory               *
           ************************************************************
------------------------------------------------------------------------------
                   ___                                                        
                  /   \      - P O W E R E D   B Y -                         
                 /     \                                                     
                 |  |  |   _    _      __       _____    __    __             
                 |  |  |  | |  | |    /  \     |  _  \  |  |  /  |          
                  \  \/   | |  | |   /    \    | | | |  |  | /  /          
                 / \  \   | |__| |  /  /\  \   | |_| |  |  |/  /          
                |  |  |   |  __  | /  /__\  \  |    /   |      \           
                |  |  |   | |  | | |   __   |  |    \   |  |\   \          
                \     /   | |  | | |  |  |  |  | |\  \  |  | \   \       
                 \___/    |_|  |_| |__|  |__|  |_| \__\ |__|  \__/        
                                                                              
                      - O R C A' S   B I G   F R I E N D -                    
                                      &                                       
                       - I N T E G R A L  F E E D E R -                       
                                                                              
 v1 FN, 2020, v2 2021                                                         
------------------------------------------------------------------------------


Reading SHARK input file /beegfs/scratch/ispackman/PFAS_EPR_calcs/benchmark/JChemEd_CF3_radical/CH3_radical_102.5_degrees_IN-PROGRESS/CH3_radical_102.5_degrees.SHARKINP.tmp ... ok
----------------------
SHARK INTEGRAL PACKAGE
----------------------

Number of atoms                             ...      4
Number of basis functions                   ...     64
Number of shells                            ...     28
Maximum angular momentum                    ...      3
Integral batch strategy                     ... SHARK/LIBINT Hybrid
RI-J (if used) integral strategy            ... SPLIT-RIJ (Revised 2003 algorithm where possible)
Printlevel                                  ...      1
Contraction scheme used                     ... SEGMENTED contraction
Coulomb Range Separation                    ... NOT USED
Exchange Range Separation                   ... Long Range
   Mu parameter                             ...  0.250000
   Scaling (regular/separated)              ...  0.195728  0.804272
Finite Nucleus Model                        ... NOT USED
Auxiliary Coulomb fitting basis             ... AVAILABLE
   # of basis functions in Aux-J            ...     82
   # of shells in Aux-J                     ...     30
   Maximum angular momentum in Aux-J        ...      4
Auxiliary J/K fitting basis                 ... NOT available
Auxiliary Correlation fitting basis         ... NOT available
Auxiliary 'external' fitting basis          ... NOT available
Integral threshold                          ...     2.500000e-11
Primitive cut-off                           ...     2.500000e-12
Primitive pair pre-selection threshold      ...     2.500000e-12

Calculating pre-screening integrals         ... done (  0.1 sec) Dimension = 28
Organizing shell pair data                  ... done (  0.0 sec)
Shell pair information
Total number of shell pairs                 ...       406
Shell pairs after pre-screening             ...       406
Total number of primitive shell pairs       ...       977
Primitive shell pairs kept                  ...       947
          la=0 lb=0:    120 shell pairs
          la=1 lb=0:    135 shell pairs
          la=1 lb=1:     45 shell pairs
          la=2 lb=0:     45 shell pairs
          la=2 lb=1:     27 shell pairs
          la=2 lb=2:      6 shell pairs
          la=3 lb=0:     15 shell pairs
          la=3 lb=1:      9 shell pairs
          la=3 lb=2:      3 shell pairs
          la=3 lb=3:      1 shell pairs

Calculating one electron integrals          ... done (  0.0 sec)
Calculating RI/J V-Matrix + Cholesky decomp.... done (  0.0 sec)
Calculating Nuclear repulsion               ... done (  0.0 sec) ENN=      9.631487570869 Eh

SHARK setup successfully completed in   0.3 seconds

Maximum memory used throughout the entire GTOINT-calculation: 14.0 MB


           ************************************************************
           *        Program running with 18 parallel MPI-processes    *
           *              working on a common directory               *
           ************************************************************

Diagonalization of the overlap matrix:
Smallest eigenvalue                        ... 4.719e-05
Time for diagonalization                   ...    0.002 sec
Threshold for overlap eigenvalues          ... 1.000e-08
Number of eigenvalues below threshold      ... 0
Time for construction of square roots      ...    0.015 sec
Total time needed                          ...    0.018 sec

-------------------
DFT GRID GENERATION
-------------------

General Integration Accuracy     IntAcc      ... 4.388
Radial Grid Type                 RadialGrid  ... OptM3 with GC (2021)
Angular Grid (max. ang.)         AngularGrid ... 4 (Lebedev-302)
Angular grid pruning method      GridPruning ... 4 (adaptive)
Weight generation scheme         WeightScheme... Becke
Basis function cutoff            BFCut       ... 1.0000e-11
Integration weight cutoff        WCut        ... 1.0000e-14
Angular grids for H and He will be reduced by one unit
Partially contracted basis set               ... off
Rotationally invariant grid construction     ... off

Total number of grid points                  ...    17039
Total number of batches                      ...      268
Average number of points per batch           ...       63
Average number of grid points per atom       ...     4260
Time for grid setup =    0.102 sec

--------------------
COSX GRID GENERATION
--------------------

GRIDX 1
-------
General Integration Accuracy     IntAcc      ... 3.816
Radial Grid Type                 RadialGrid  ... OptM3 with GC (2021)
Angular Grid (max. ang.)         AngularGrid ... 1 (Lebedev-50)
Angular grid pruning method      GridPruning ... 4 (adaptive)
Weight generation scheme         WeightScheme... Becke
Basis function cutoff            BFCut       ... 1.0000e-11
Integration weight cutoff        WCut        ... 1.0000e-14
Angular grids for H and He will be reduced by one unit
Partially contracted basis set               ... on
Rotationally invariant grid construction     ... off

Total number of grid points                  ...     2150
Total number of batches                      ...       36
Average number of points per batch           ...       59
Average number of grid points per atom       ...      538
UseSFitting                                  ... on

GRIDX 2
-------
General Integration Accuracy     IntAcc      ... 4.020
Radial Grid Type                 RadialGrid  ... OptM3 with GC (2021)
Angular Grid (max. ang.)         AngularGrid ... 2 (Lebedev-110)
Angular grid pruning method      GridPruning ... 4 (adaptive)
Weight generation scheme         WeightScheme... Becke
Basis function cutoff            BFCut       ... 1.0000e-11
Integration weight cutoff        WCut        ... 1.0000e-14
Angular grids for H and He will be reduced by one unit
Partially contracted basis set               ... on
Rotationally invariant grid construction     ... off

Total number of grid points                  ...     5038
Total number of batches                      ...       81
Average number of points per batch           ...       62
Average number of grid points per atom       ...     1260
UseSFitting                                  ... on

GRIDX 3
-------
General Integration Accuracy     IntAcc      ... 4.338
Radial Grid Type                 RadialGrid  ... OptM3 with GC (2021)
Angular Grid (max. ang.)         AngularGrid ... 3 (Lebedev-194)
Angular grid pruning method      GridPruning ... 4 (adaptive)
Weight generation scheme         WeightScheme... Becke
Basis function cutoff            BFCut       ... 1.0000e-11
Integration weight cutoff        WCut        ... 1.0000e-14
Angular grids for H and He will be reduced by one unit
Partially contracted basis set               ... on
Rotationally invariant grid construction     ... off

Total number of grid points                  ...    11710
Total number of batches                      ...      184
Average number of points per batch           ...       63
Average number of grid points per atom       ...     2928
UseSFitting                                  ... on

Time for X-Grid setup             =    0.275 sec

--------------
SCF ITERATIONS
--------------
ITER       Energy         Delta-E        Max-DP      RMS-DP      [F,P]     Damp
               ***  Starting incremental Fock matrix formation  ***
  0    -39.8146204686   0.000000000000 0.00952772  0.00016247  0.0036098 0.7000
  1    -39.8146602069  -0.000039738340 0.00837326  0.00014243  0.0024387 0.7000
                               ***Turning on DIIS***
  2    -39.8146867922  -0.000026585275 0.02176161  0.00036948  0.0017373 0.0000
  3    -39.8147451884  -0.000058396251 0.00473109  0.00008228  0.0006453 0.0000
               *** Restarting incremental Fock matrix formation ***
                                   *** Resetting DIIS ***
  4    -39.8147479230  -0.000002734577 0.00044898  0.00001429  0.0002999 0.0000
  5    -39.8147483763  -0.000000453298 0.00039733  0.00000775  0.0001802 0.0000
  6    -39.8147485624  -0.000000186143 0.00010077  0.00000323  0.0000373 0.0000
  7    -39.8147485787  -0.000000016236 0.00004482  0.00000112  0.0000096 0.0000
                 **** Energy Check signals convergence ****

               *****************************************************
               *                     SUCCESS                       *
               *           SCF CONVERGED AFTER   8 CYCLES          *
               *****************************************************

Old exchange energy                            =     -2.169691409 Eh
New exchange energy                            =     -2.169694684 Eh
Exchange energy change after final integration =     -0.000003276 Eh
Total energy after final integration           =    -39.814751855 Eh
Final COS-X integration done in                =     0.126 sec
Total Energy       :          -39.81475186 Eh           -1083.41448 eV
  Last Energy change         ...   -1.0001e-09  Tolerance :   1.0000e-08
  Last MAX-Density change    ...    0.0000e+00  Tolerance :   1.0000e-07
             **** THE GBW FILE WAS UPDATED (/beegfs/scratch/ispackman/PFAS_EPR_calcs/benchmark/JChemEd_CF3_radical/CH3_radical_102.5_degrees_IN-PROGRESS/CH3_radical_102.5_degrees.gbw) ****
             **** DENSITY /beegfs/scratch/ispackman/PFAS_EPR_calcs/benchmark/JChemEd_CF3_radical/CH3_radical_102.5_degrees_IN-PROGRESS/CH3_radical_102.5_degrees.scfp WAS UPDATED ****
             **** ENERGY FILE WAS UPDATED (/beegfs/scratch/ispackman/PFAS_EPR_calcs/benchmark/JChemEd_CF3_radical/CH3_radical_102.5_degrees_IN-PROGRESS/CH3_radical_102.5_degrees.en.tmp) ****
----------------------
UHF SPIN CONTAMINATION
----------------------

Warning: in a DFT calculation there is little theoretical justification to 
         calculate <S**2> as in Hartree-Fock theory. We will do it anyways
         but you should keep in mind that the values have only limited relevance

Expectation value of <S**2>     :     0.753057
Ideal value S*(S+1) for S=0.5   :     0.750000
Deviation                       :     0.003057

             **** THE GBW FILE WAS UPDATED (/beegfs/scratch/ispackman/PFAS_EPR_calcs/benchmark/JChemEd_CF3_radical/CH3_radical_102.5_degrees_IN-PROGRESS/CH3_radical_102.5_degrees.gbw) ****
             **** DENSITY /beegfs/scratch/ispackman/PFAS_EPR_calcs/benchmark/JChemEd_CF3_radical/CH3_radical_102.5_degrees_IN-PROGRESS/CH3_radical_102.5_degrees.scfp WAS UPDATED ****
Total SCF time: 0 days 0 hours 0 min 5 sec 

Maximum memory used throughout the entire SCF-calculation: 58.5 MB


-------------------------------------------------------------------------------
                          DFT DISPERSION CORRECTION                            
                                                                               
                              DFTD3 V3.1  Rev 1                                
                              USING zero damping                               
-------------------------------------------------------------------------------
-------------------------   ----------------
Dispersion correction           -0.000008998
-------------------------   ----------------


-------------------------   --------------------
FINAL SINGLE POINT ENERGY       -39.814760853213
-------------------------   --------------------



           ************************************************************
           *        Program running with 18 parallel MPI-processes    *
           *              working on a common directory               *
           ************************************************************
------------------------------------------------------------------------------
                         ORCA SCF GRADIENT CALCULATION
------------------------------------------------------------------------------

 ... reading COSX grid (gridx3)
Gradient of the Kohn-Sham DFT energy:
Kohn-Sham wavefunction type      ... UKS
Hartree-Fock exchange scaling    ...    0.196
Number of operators              ...    2
Number of atoms                  ...    4
Basis set dimensions             ...   64
Integral neglect threshold       ... 2.5e-11
Integral primitive cutoff        ... 2.5e-12
SHARK Integral package           ... ON

Nuc. rep. gradient       (SHARK) ... done (  0.0 sec)
HCore & Overlap gradient (SHARK) ... done (  0.0 sec)
RI-J gradient            (SHARK) ... done (  0.1 sec)
COSX-gradient                    ... done (  0.1 sec)
Exchange-correlation gradient    ... done
Dispersion correction            ... done

------------------
CARTESIAN GRADIENT
------------------

WARNING: THERE ARE 3 CONSTRAINED CARTESIAN COORDINATES
   1   C   :   -0.000016652    0.000000026    0.068680402
   2   H   :   -0.011567327   -0.000000009   -0.022924039
   3   H   :    0.005745900   -0.010004756   -0.022890353
   4   H   :    0.005745873    0.010004733   -0.022890365

Difference to translation invariance:
           :   -0.0000922059   -0.0000000067   -0.0000243547

Difference to rotation invariance:
           :   -0.0000000066    0.0001274150   -0.0000000378

Norm of the cartesian gradient     ...    0.0817952923
RMS gradient                       ...    0.0236122670
MAX gradient                       ...    0.0686804021

-------
TIMINGS
-------

Total SCF gradient time            ...        0.622 sec

One electron gradient       ....       0.007 sec  (  1.1%)
RI-J Coulomb gradient       ....       0.131 sec  ( 21.1%)
COSX gradient               ....       0.120 sec  ( 19.2%)
XC gradient                 ....       0.069 sec  ( 11.1%)

Maximum memory used throughout the entire SCFGRAD-calculation: 33.6 MB
------------------------------------------------------------------------------
                         ORCA GEOMETRY RELAXATION STEP
------------------------------------------------------------------------------

Reading the OPT-File                    .... done
Getting information on internals        .... done
Copying old internal coords+grads       .... done
Making the new internal coordinates     .... (new redundants).... done
Validating the new internal coordinates .... (new redundants).... done
Calculating the B-matrix                .... done
Calculating the G,G- and P matrices     .... done
Transforming gradient to internals      .... done
Projecting the internal gradient        .... done
Number of atoms                         ....   4
Number of internal coordinates          ....   7
Current Energy                          ....   -39.814760853 Eh
Current gradient norm                   ....     0.081795292 Eh/bohr
Maximum allowed component of the step   ....  0.300
Current trust radius                    ....  0.300
Updating the Hessian (BFGS)             .... done
Forming the augmented Hessian           .... done
Diagonalizing the augmented Hessian     .... done
Last element of RFO vector              ....  0.999997697
Lowest eigenvalues of augmented Hessian:
 -0.000001651  0.358381128  0.373574723  0.373575805 999.999999981
Length of the computed step             ....  0.002146222
The final length of the internal step   ....  0.002146222
Converting the step to cartesian space:
 Initial RMS(Int)=    0.0008111956
Transforming coordinates:
 Iter   0:  RMS(Cart)=    0.0005739547 RMS(Int)=    0.0008111956
 Iter   1:  RMS(Cart)=    0.0000000000 RMS(Int)=    0.0000000000
Imposing constraints:
 Iter   0:  RMS(Cart)=    0.0000000004 RMS(Int)=    0.0000000010
CONVERGED
done
Storing new coordinates                 .... done

                                .--------------------.
          ----------------------|Geometry convergence|-------------------------
          Item                value                   Tolerance       Converged
          ---------------------------------------------------------------------
          Energy change      -0.0004428768            0.0000050000      NO
          RMS gradient        0.0002907172            0.0001000000      NO
          MAX gradient        0.0004469862            0.0003000000      NO
          RMS step            0.0008111956            0.0020000000      YES
          MAX step            0.0012472528            0.0040000000      YES
          ........................................................
          Max(Bonds)      0.0007      Max(Angles)    0.00
          Max(Dihed)        0.00      Max(Improp)    0.00
          ---------------------------------------------------------------------

The optimization has not yet converged - more geometry cycles are needed


    ---------------------------------------------------------------------------
                         Redundant Internal Coordinates
                            (Angstroem and degrees)

        Definition                    Value    dE/dq     Step     New-Value
    ----------------------------------------------------------------------------
     1. B(H   1,C   0)                1.0946 -0.000438  0.0006    1.0953   
     2. B(H   2,C   0)                1.0947 -0.000447  0.0007    1.0953   
     3. B(H   3,C   0)                1.0947 -0.000447  0.0007    1.0953   
     4. A(H   2,C   0,H   3)          102.50 -0.036223   -0.00    102.50 C 
     5. A(H   1,C   0,H   2)          102.50 -0.015605   -0.00    102.50 C 
     6. A(H   1,C   0,H   3)          102.50 -0.015605   -0.00    102.50 C 
     7. I(H   1,H   3,H   2,C   0)     69.77  0.034257    0.00     69.77   
    ----------------------------------------------------------------------------

         *************************************************************
         *                GEOMETRY OPTIMIZATION CYCLE   3            *
         *************************************************************
---------------------------------
CARTESIAN COORDINATES (ANGSTROEM)
---------------------------------
  C      0.000017    0.000000    0.004987
  H      0.986325    0.000000   -0.471227
  H     -0.493171    0.854217   -0.471236
  H     -0.493171   -0.854217   -0.471236

----------------------------
CARTESIAN COORDINATES (A.U.)
----------------------------
  NO LB      ZA    FRAG     MASS         X           Y           Z
   0 C     6.0000    0    12.011    0.000032    0.000000    0.009424
   1 H     1.0000    0     1.008    1.863884    0.000000   -0.890491
   2 H     1.0000    0     1.008   -0.931958    1.614237   -0.890506
   3 H     1.0000    0     1.008   -0.931958   -1.614237   -0.890506

--------------------------------
INTERNAL COORDINATES (ANGSTROEM)
--------------------------------
 C      0   0   0     0.000000000000     0.00000000     0.00000000
 H      1   0   0     1.095254710068     0.00000000     0.00000000
 H      1   2   0     1.095312654240   102.49999988     0.00000000
 H      1   2   3     1.095312659763   102.49999988   106.03507839

---------------------------
INTERNAL COORDINATES (A.U.)
---------------------------
 C      0   0   0     0.000000000000     0.00000000     0.00000000
 H      1   0   0     2.069731448915     0.00000000     0.00000000
 H      1   2   0     2.069840947532   102.49999988     0.00000000
 H      1   2   3     2.069840957969   102.49999988   106.03507839



           ************************************************************
           *        Program running with 18 parallel MPI-processes    *
           *              working on a common directory               *
           ************************************************************
------------------------------------------------------------------------------
                   ___                                                        
                  /   \      - P O W E R E D   B Y -                         
                 /     \                                                     
                 |  |  |   _    _      __       _____    __    __             
                 |  |  |  | |  | |    /  \     |  _  \  |  |  /  |          
                  \  \/   | |  | |   /    \    | | | |  |  | /  /          
                 / \  \   | |__| |  /  /\  \   | |_| |  |  |/  /          
                |  |  |   |  __  | /  /__\  \  |    /   |      \           
                |  |  |   | |  | | |   __   |  |    \   |  |\   \          
                \     /   | |  | | |  |  |  |  | |\  \  |  | \   \       
[...]
  ZA   - Total nuclear charge
  QA   - Mulliken gross atomic charge
  VA   - Mayer's total valence
  BVA  - Mayer's bonded valence
  FA   - Mayer's free valence

  ATOM       NA         ZA         QA         VA         BVA        FA
  0 C      6.6742     6.0000    -0.6742     3.8221     3.0261     0.7960
  1 H      0.7756     1.0000     0.2244     1.0162     1.0150     0.0012
  2 H      0.7751     1.0000     0.2249     1.0156     1.0144     0.0012
  3 H      0.7751     1.0000     0.2249     1.0156     1.0144     0.0012

  Mayer bond orders larger than 0.100000
B(  0-C ,  1-H ) :   1.0090 B(  0-C ,  2-H ) :   1.0085 B(  0-C ,  3-H ) :   1.0085 


-------
TIMINGS
-------

Total SCF time: 0 days 0 hours 0 min 3 sec 

Total time                  ....       3.614 sec
Sum of individual times     ....       3.077 sec  ( 85.1%)

Fock matrix formation       ....       2.479 sec  ( 68.6%)
  Split-RI-J                ....       0.417 sec  ( 16.8% of F)
  Chain of spheres X        ....       0.668 sec  ( 26.9% of F)
  XC integration            ....       0.455 sec  ( 18.4% of F)
    Basis function eval.    ....       0.021 sec  (  4.6% of XC)
    Density eval.           ....       0.020 sec  (  4.3% of XC)
    XC-Functional eval.     ....       0.021 sec  (  4.6% of XC)
    XC-Potential eval.      ....       0.024 sec  (  5.3% of XC)
Diagonalization             ....       0.068 sec  (  1.9%)
Density matrix formation    ....       0.006 sec  (  0.2%)
Population analysis         ....       0.130 sec  (  3.6%)
Initial guess               ....       0.007 sec  (  0.2%)
Orbital Transformation      ....       0.000 sec  (  0.0%)
Orbital Orthonormalization  ....       0.002 sec  (  0.1%)
DIIS solution               ....       0.059 sec  (  1.6%)
Grid generation             ....       0.328 sec  (  9.1%)

Maximum memory used throughout the entire SCF-calculation: 58.5 MB


-------------------------------------------------------------------------------
                          DFT DISPERSION CORRECTION                            
                                                                               
                              DFTD3 V3.1  Rev 1                                
                              USING zero damping                               
-------------------------------------------------------------------------------
The omegaB97X-D3 functional is recognized. Fit by Chai et al.
Active option DFTDOPT                   ...         3   

molecular C6(AA) [au] = 106.997400 


            DFT-D V3
 parameters
 s6 scaling factor         :     1.0000 
 rs6 scaling factor        :     1.2810 
 s8 scaling factor         :     1.0000 
 rs8 scaling factor        :     1.0940 
 Damping factor alpha6     :    14.0000 
 Damping factor alpha8     :    16.0000 
 ad hoc parameters k1-k3   :    16.0000     1.3333    -4.0000 

 Edisp/kcal,au: -0.005674658519  -0.000009043143 
 E6   /kcal   :  -0.000883083 
 E8   /kcal   :  -0.004791576 
 % E8         :  84.438132693 

-------------------------   ----------------
Dispersion correction           -0.000009043
-------------------------   ----------------


-------------------------   --------------------
FINAL SINGLE POINT ENERGY       -39.814761725571
-------------------------   --------------------

                                *** OPTIMIZATION RUN DONE ***

                            ***************************************
                            *     ORCA property calculations      *
                            ***************************************

                                    ---------------------
                                    Active property flags
                                    ---------------------
   (+) Dipole Moment


------------------------------------------------------------------------------
                       ORCA ELECTRIC PROPERTIES CALCULATION
------------------------------------------------------------------------------

Dipole Moment Calculation                       ... on
Quadrupole Moment Calculation                   ... off
Polarizability Calculation                      ... off
GBWName                                         ... /beegfs/scratch/ispackman/PFAS_EPR_calcs/benchmark/JChemEd_CF3_radical/CH3_radical_102.5_degrees_IN-PROGRESS/CH3_radical_102.5_degrees.gbw
Electron density                                ... /beegfs/scratch/ispackman/PFAS_EPR_calcs/benchmark/JChemEd_CF3_radical/CH3_radical_102.5_degrees_IN-PROGRESS/CH3_radical_102.5_degrees.scfp
The origin for moment calculation is the CENTER OF MASS  = ( 0.000024,  0.000000 -0.171566)

-------------
DIPOLE MOMENT
-------------
                                X             Y             Z
Electronic contribution:      0.00000      -0.00000       0.78013
Nuclear contribution   :     -0.00005      -0.00000      -1.07078
                        -----------------------------------------
Total Dipole Moment    :     -0.00005      -0.00000      -0.29065
                        -----------------------------------------
Magnitude (a.u.)       :      0.29065
Magnitude (Debye)      :      0.73878



--------------------
Rotational spectrum 
--------------------
 
Rotational constants in cm-1:     8.349862     8.349424     5.729708 
Rotational constants in MHz : 250322.566999 250309.439462 171772.321977 

 Dipole components along the rotational axes: 
x,y,z [a.u.] :     0.000000    -0.000061    -0.290652 
x,y,z [Debye]:     0.000000    -0.000155    -0.738779 

 


           ************************************************************
           *        Program running with 18 parallel MPI-processes    *
           *              working on a common directory               *
           ************************************************************

-------------------------------------------------------------------------------
                               ORCA SCF HESSIAN
-------------------------------------------------------------------------------

                   --------- SHARK INITIALIZATION DONE ---------

Hessian of the Kohn-Sham DFT energy:
Kohn-Sham wavefunction type                      ... UKS
Hartree-Fock exchange scaling                    ...    0.196
Number of operators                              ...    2
Number of atoms                                  ...    4
Basis set dimensions                             ...   64
Integral neglect threshold                       ... 2.5e-11
Integral primitive cutoff                        ... 2.5e-12

Setting up DFT Hessian calculations              ... 

HESS GRID
---------

General Integration Accuracy     IntAcc      ... 4.629
Radial Grid Type                 RadialGrid  ... OptM3 with GC (2021)
Angular Grid (max. ang.)         AngularGrid ... 5 (Lebedev-434)
Angular grid pruning method      GridPruning ... 4 (adaptive)
Weight generation scheme         WeightScheme... Becke
Basis function cutoff            BFCut       ... 1.0000e-11
Integration weight cutoff        WCut        ... 1.0000e-14
Angular grids for H and He will be reduced by one unit
Partially contracted basis set               ... off
Rotationally invariant grid construction     ... off

Total number of grid points                  ...    27255
Total number of batches                      ...      427
Average number of points per batch           ...       63
Average number of grid points per atom       ...     6814

Building densities                               ... done   (      0.0 sec)
Calculating rho(r) on the grid                   ... done   (      0.1 sec)
Building xc-kernel on the grid                   ... done   (      0.1 sec)
                                                     done   (      0.4 sec)

Nuclear repulsion Hessian  (SHARK)               ... done   (      0.0 sec)

----------------------------------------------
Forming right-hand sides of CP-SCF equations     ...
----------------------------------------------
One electron integral derivatives  (SHARK)       ... done   (      0.0 sec)
Transforming the overlap derivative matrices     ... done   (      0.0 sec)
Making the Q(x) pseudodensities                  ... done   (      0.0 sec)
Adding the E*S(x)*S(y) terms to the Hessian      ... done   (      0.0 sec)
Calculating energy weighted overlap derivatives  ... done   (      0.0 sec)
Two electron integral derivatives (SHARK-RI)     ... done   (      0.5 sec)
Exchange-correlation integral derivatives        ... done   (      0.4 sec)
tr(F(y)Q(x)) contribution to the Hessian         ... done   (      0.0 sec)
Response fock operator R(S(x)) (SHARK-RIJCOSX)   ... done   (      0.5 sec)
XC Response fock operator R(S(x))                ... done   (      0.1 sec)
tr(F(y)S(x)) contribution to the Hessian         ... done   (      0.0 sec)
Transforming and finalizing RHSs                 ... done   (      0.0 sec)

----------------------------------------------
Solving the CP-SCF equations (RIJCOSX)           ...
----------------------------------------------
     CP-SCF ITERATION   0:   1.1616e-01 (   0.3 sec   0/ 12 done)
     CP-SCF ITERATION   1:   2.9058e-02 (   0.3 sec   0/ 12 done)
     CP-SCF ITERATION   2:   9.5904e-03 (   0.3 sec   0/ 12 done)
     CP-SCF ITERATION   3:   3.2650e-03 (   0.3 sec   0/ 12 done)
     CP-SCF ITERATION   4:   5.4710e-04 (   0.3 sec   1/ 12 done)
     CP-SCF ITERATION   5:   1.1999e-04 (   0.2 sec  11/ 12 done)
     CP-SCF ITERATION   6:   2.6065e-05 (   0.3 sec  12/ 12 done)
                    *** THE CP-SCF HAS CONVERGED ***

                                                 ... done   (      2.2 sec)
Forming perturbed density Hessian contributions  ... done   (      0.0 sec)
2nd integral derivative contribs (SHARK-RI)      ... done   (      0.7 sec)
Exchange-correlation Hessian                     ... done   (      0.3 sec)
Dispersion correction in the Hessian             ... done   (      0.1 sec)
Dipole derivatives                               ... (center of mass:  0.000024,  0.000000 -0.171566)done   (      0.1 sec)

Total SCF Hessian time: 0 days 0 hours 0 min 5 sec 

Writing the Hessian file to the disk             ... done


Maximum memory used throughout the entire SCFHESS-calculation: 109.4 MB

-----------------------
VIBRATIONAL FREQUENCIES
-----------------------

Scaling factor for frequencies =  1.000000000  (already applied!)

   0:         0.00 cm**-1
   1:         0.00 cm**-1
   2:         0.00 cm**-1
   3:         0.00 cm**-1
   4:         0.00 cm**-1
   5:         0.00 cm**-1
   6:      1280.24 cm**-1
   7:      1400.89 cm**-1
   8:      1403.53 cm**-1
   9:      3055.22 cm**-1
  10:      3114.78 cm**-1
  11:      3114.82 cm**-1


------------
NORMAL MODES
------------

These modes are the Cartesian displacements weighted by the diagonal matrix
M(i,i)=1/sqrt(m[i]) where m[i] is the mass of the displaced atom
Thus, these vectors are normalized but *not* orthogonal

                  0          1          2          3          4          5    
      0       0.000000   0.000000   0.000000   0.000000   0.000000   0.000000
      1       0.000000   0.000000   0.000000   0.000000   0.000000   0.000000
      2       0.000000   0.000000   0.000000   0.000000   0.000000   0.000000
      3       0.000000   0.000000   0.000000   0.000000   0.000000   0.000000
      4       0.000000   0.000000   0.000000   0.000000   0.000000   0.000000
      5       0.000000   0.000000   0.000000   0.000000   0.000000   0.000000
      6       0.000000   0.000000   0.000000   0.000000   0.000000   0.000000
      7       0.000000   0.000000   0.000000   0.000000   0.000000   0.000000
      8       0.000000   0.000000   0.000000   0.000000   0.000000   0.000000
      9       0.000000   0.000000   0.000000   0.000000   0.000000   0.000000
     10       0.000000   0.000000   0.000000   0.000000   0.000000   0.000000
     11       0.000000   0.000000   0.000000   0.000000   0.000000   0.000000
                  6          7          8          9         10         11    
      0      -0.000236  -0.000001   0.074038   0.000015  -0.087908   0.000046
      1       0.000000   0.074041   0.000001  -0.000000   0.000046   0.087906
      2      -0.130570   0.000000  -0.000377  -0.050757  -0.000016  -0.000000
      3       0.241714  -0.000002   0.159086  -0.540330   0.738961  -0.000386
      4      -0.000001  -0.746539  -0.000008   0.000000   0.000021   0.040735
      5       0.517729  -0.000004   0.285464   0.201664  -0.337097   0.000176
      6      -0.119451  -0.391805  -0.520652   0.270075   0.154435   0.337576
      7       0.211094  -0.067853  -0.391215  -0.467792  -0.337998  -0.543923
      8       0.519049   0.245923  -0.140486   0.201568   0.168795   0.291890
      9      -0.119450   0.391817  -0.520644   0.270075   0.154083  -0.337737
     10      -0.211094  -0.067861   0.391214   0.467792   0.337431  -0.544275
     11       0.519048  -0.245922  -0.140491   0.201568   0.168491  -0.292066


-----------
IR SPECTRUM
-----------

 Mode   freq       eps      Int      T**2         TX        TY        TZ
       cm**-1   L/(mol*cm) km/mol    a.u.
----------------------------------------------------------------------------
  6:   1280.24   0.001950    9.85  0.000475  ( 0.000124 -0.000000  0.021802)
  7:   1400.89   0.000832    4.20  0.000185  ( 0.000000 -0.013611 -0.000000)
  8:   1403.53   0.000832    4.20  0.000185  (-0.013601 -0.000000 -0.000026)
  9:   3055.22   0.000017    0.08  0.000002  ( 0.000034  0.000000 -0.001302)
 10:   3114.78   0.006390   32.29  0.000640  (-0.025303  0.000013 -0.000041)
 11:   3114.82   0.006547   33.09  0.000656  ( 0.000013  0.025611  0.000000)

* The epsilon (eps) is given for a Dirac delta lineshape.
** The dipole moment derivative (T) already includes vibrational overlap.

The first frequency considered to be a vibration is 6
The total number of vibrations considered is 6


--------------------------
THERMOCHEMISTRY AT 298.15K
--------------------------

Temperature         ... 298.15 K
Pressure            ... 1.00 atm
Total Mass          ... 15.03 AMU

Throughout the following assumptions are being made:
  (1) The electronic state is orbitally nondegenerate
      but the spin degeneracy is treated
  (2) There are no thermally accessible electronically excited states
  (3) Hindered rotations indicated by low frequency modes are not
      treated as such but are treated as vibrations and this may
      cause some error
  (4) All equations used are the standard statistical mechanics
      equations for an ideal gas
  (5) All vibrations are strictly harmonic

freq.    1280.24  E(vib)   ...       0.01 
freq.    1400.89  E(vib)   ...       0.00 
freq.    1403.53  E(vib)   ...       0.00 
freq.    3055.22  E(vib)   ...       0.00 
freq.    3114.78  E(vib)   ...       0.00 
freq.    3114.82  E(vib)   ...       0.00 

------------
INNER ENERGY
------------

The inner energy is: U= E(el) + E(ZPE) + E(vib) + E(rot) + E(trans)
    E(el)   - is the total energy from the electronic structure calculation
              = E(kin-el) + E(nuc-el) + E(el-el) + E(nuc-nuc)
    E(ZPE)  - the the zero temperature vibrational energy from the frequency calculation
    E(vib)  - the the finite temperature correction to E(ZPE) due to population
              of excited vibrational states
    E(rot)  - is the rotational thermal energy
    E(trans)- is the translational thermal energy

Summary of contributions to the inner energy U:
Electronic energy                ...    -39.81476173 Eh
Zero point energy                ...      0.03045792 Eh      19.11 kcal/mol
Thermal vibrational correction   ...      0.00002688 Eh       0.02 kcal/mol
Thermal rotational correction    ...      0.00141627 Eh       0.89 kcal/mol
Thermal translational correction ...      0.00141627 Eh       0.89 kcal/mol
-----------------------------------------------------------------------
Total thermal energy                    -39.78144439 Eh


Summary of corrections to the electronic energy:
(perhaps to be used in another calculation)
Total thermal correction                  0.00285942 Eh       1.79 kcal/mol
Non-thermal (ZPE) correction              0.03045792 Eh      19.11 kcal/mol
-----------------------------------------------------------------------
Total correction                          0.03331734 Eh      20.91 kcal/mol


--------
ENTHALPY
--------

The enthalpy is H = U + kB*T
                kB is Boltzmann's constant
Total free energy                 ...    -39.78144439 Eh 
Thermal Enthalpy correction       ...      0.00094421 Eh       0.59 kcal/mol
-----------------------------------------------------------------------
Total Enthalpy                    ...    -39.78050018 Eh


Note: Rotational entropy computed according to Herzberg 
Infrared and Raman Spectra, Chapter V,1, Van Nostrand Reinhold, 1945 
Point Group:  C3v, Symmetry Number:   3  
Rotational constants in cm-1:     8.349862     8.349424     5.729708 

Vibrational entropy computed according to the QRRHO of S. Grimme
Chem.Eur.J. 2012 18 9955


-------
ENTROPY
-------

The entropy contributions are T*S = T*(S(el)+S(vib)+S(rot)+S(trans))
     S(el)   - electronic entropy
     S(vib)  - vibrational entropy
     S(rot)  - rotational entropy
     S(trans)- translational entropy
The entropies will be listed as multiplied by the temperature to get
units of energy

Electronic entropy                ...      0.00065446 Eh      0.41 kcal/mol
Vibrational entropy               ...      0.00003102 Eh      0.02 kcal/mol
Rotational entropy                ...      0.00564565 Eh      3.54 kcal/mol
Translational entropy             ...      0.01618771 Eh     10.16 kcal/mol
-----------------------------------------------------------------------
Final entropy term                ...      0.02251884 Eh     14.13 kcal/mol

In case the symmetry of your molecule has not been determined correctly
or in case you have a reason to use a different symmetry number we print 
out the resulting rotational entropy values for sn=1,12 :
 --------------------------------------------------------
|  sn= 1 | S(rot)=       0.00668294 Eh      4.19 kcal/mol|
|  sn= 2 | S(rot)=       0.00602848 Eh      3.78 kcal/mol|
|  sn= 3 | S(rot)=       0.00564565 Eh      3.54 kcal/mol|
|  sn= 4 | S(rot)=       0.00537403 Eh      3.37 kcal/mol|
|  sn= 5 | S(rot)=       0.00516334 Eh      3.24 kcal/mol|
|  sn= 6 | S(rot)=       0.00499119 Eh      3.13 kcal/mol|
|  sn= 7 | S(rot)=       0.00484565 Eh      3.04 kcal/mol|
|  sn= 8 | S(rot)=       0.00471957 Eh      2.96 kcal/mol|
|  sn= 9 | S(rot)=       0.00460836 Eh      2.89 kcal/mol|
|  sn=10 | S(rot)=       0.00450888 Eh      2.83 kcal/mol|
|  sn=11 | S(rot)=       0.00441889 Eh      2.77 kcal/mol|
|  sn=12 | S(rot)=       0.00433674 Eh      2.72 kcal/mol|
 --------------------------------------------------------


-------------------
GIBBS FREE ENERGY
-------------------

The Gibbs free energy is G = H - T*S

Total enthalpy                    ...    -39.78050018 Eh 
Total entropy correction          ...     -0.02251884 Eh    -14.13 kcal/mol
-----------------------------------------------------------------------
Final Gibbs free energy         ...    -39.80301902 Eh

For completeness - the Gibbs free energy minus the electronic energy
G-E(el)                           ...      0.01174271 Eh      7.37 kcal/mol


Timings for individual modules:

Sum of individual times         ...       60.420 sec (=   1.007 min)
GTO integral calculation        ...       10.774 sec (=   0.180 min)  17.8 %
SCF iterations                  ...       31.458 sec (=   0.524 min)  52.1 %
SCF Gradient evaluation         ...        9.558 sec (=   0.159 min)  15.8 %
Geometry relaxation             ...        0.170 sec (=   0.003 min)   0.3 %
Analytical frequency calculation...        8.460 sec (=   0.141 min)  14.0 %
                             ****ORCA TERMINATED NORMALLY****
TOTAL RUN TIME: 0 days 0 hours 1 minutes 11 seconds 61 msec

slurmID:    32260096
totalRuntime[s]:    71.107915046
