
                                 *****************
                                 * O   R   C   A *
                                 *****************

                                            #,                                       
                                            ###                                      
                                            ####                                     
                                            #####                                    
                                            ######                                   
                                           ########,                                 
                                     ,,################,,,,,                         
                               ,,#################################,,                 
                          ,,##########################################,,             
                       ,#########################################, ''#####,          
                    ,#############################################,,   '####,        
                  ,##################################################,,,,####,       
                ,###########''''           ''''###############################       
              ,#####''   ,,,,##########,,,,          '''####'''          '####       
            ,##' ,,,,###########################,,,                        '##       
           ' ,,###''''                  '''############,,,                           
         ,,##''                                '''############,,,,        ,,,,,,###''
      ,#''                                            '''#######################'''  
     '                                                          ''''####''''         
             ,#######,   #######,   ,#######,      ##                                
            ,#'     '#,  ##    ##  ,#'     '#,    #''#        ######   ,####,        
            ##       ##  ##   ,#'  ##            #'  '#       #        #'  '#        
            ##       ##  #######   ##           ,######,      #####,   #    #        
            '#,     ,#'  ##    ##  '#,     ,#' ,#      #,         ##   #,  ,#        
             '#######'   ##     ##  '#######'  #'      '#     #####' # '####'        



                  #######################################################
                  #                        -***-                        #
                  #          Department of theory and spectroscopy      #
                  #    Directorship and core code : Frank Neese         #
                  #        Max Planck Institute fuer Kohlenforschung    #
                  #                Kaiser Wilhelm Platz 1               #
                  #                 D-45470 Muelheim/Ruhr               #
                  #                      Germany                        #
                  #                                                     #
                  #                  All rights reserved                #
                  #                        -***-                        #
                  #######################################################


                         Program Version 5.0.4 -  RELEASE  -


 With contributions from (in alphabetic order):
   Daniel Aravena         : Magnetic Suceptibility
   Michael Atanasov       : Ab Initio Ligand Field Theory (pilot matlab implementation)
   Alexander A. Auer      : GIAO ZORA, VPT2 properties, NMR spectrum
   Ute Becker             : Parallelization
   Giovanni Bistoni       : ED, misc. LED, open-shell LED, HFLD
   Martin Brehm           : Molecular dynamics
   Dmytro Bykov           : SCF Hessian
   Vijay G. Chilkuri      : MRCI spin determinant printing, contributions to CSF-ICE
   Dipayan Datta          : RHF DLPNO-CCSD density
   Achintya Kumar Dutta   : EOM-CC, STEOM-CC
   Dmitry Ganyushin       : Spin-Orbit,Spin-Spin,Magnetic field MRCI
   Miquel Garcia          : C-PCM and meta-GGA Hessian, CC/C-PCM, Gaussian charge scheme
   Yang Guo               : DLPNO-NEVPT2, F12-NEVPT2, CIM, IAO-localization
   Andreas Hansen         : Spin unrestricted coupled pair/coupled cluster methods
   Benjamin Helmich-Paris : MC-RPA, TRAH-SCF, COSX integrals
   Lee Huntington         : MR-EOM, pCC
   Robert Izsak           : Overlap fitted RIJCOSX, COSX-SCS-MP3, EOM
   Marcus Kettner         : VPT2
   Christian Kollmar      : KDIIS, OOCD, Brueckner-CCSD(T), CCSD density, CASPT2, CASPT2-K
   Simone Kossmann        : Meta GGA functionals, TD-DFT gradient, OOMP2, MP2 Hessian
   Martin Krupicka        : Initial AUTO-CI
   Lucas Lang             : DCDCAS
   Marvin Lechner         : AUTO-CI (C++ implementation), FIC-MRCC
   Dagmar Lenk            : GEPOL surface, SMD
   Dimitrios Liakos       : Extrapolation schemes; Compound Job, initial MDCI parallelization
   Dimitrios Manganas     : Further ROCIS development; embedding schemes
   Dimitrios Pantazis     : SARC Basis sets
   Anastasios Papadopoulos: AUTO-CI, single reference methods and gradients
   Taras Petrenko         : DFT Hessian,TD-DFT gradient, ASA, ECA, R-Raman, ABS, FL, XAS/XES, NRVS
   Peter Pinski           : DLPNO-MP2, DLPNO-MP2 Gradient
   Christoph Reimann      : Effective Core Potentials
   Marius Retegan         : Local ZFS, SOC
   Christoph Riplinger    : Optimizer, TS searches, QM/MM, DLPNO-CCSD(T), (RO)-DLPNO pert. Triples
   Tobias Risthaus        : Range-separated hybrids, TD-DFT gradient, RPA, STAB
   Michael Roemelt        : Original ROCIS implementation
   Masaaki Saitow         : Open-shell DLPNO-CCSD energy and density
   Barbara Sandhoefer     : DKH picture change effects
   Avijit Sen             : IP-ROCIS
   Kantharuban Sivalingam : CASSCF convergence, NEVPT2, FIC-MRCI
   Bernardo de Souza      : ESD, SOC TD-DFT
   Georgi Stoychev        : AutoAux, RI-MP2 NMR, DLPNO-MP2 response
   Willem Van den Heuvel  : Paramagnetic NMR
   Boris Wezisla          : Elementary symmetry handling
   Frank Wennmohs         : Technical directorship


 We gratefully acknowledge several colleagues who have allowed us to
 interface, adapt or use parts of their codes:
   Stefan Grimme, W. Hujo, H. Kruse, P. Pracht,  : VdW corrections, initial TS optimization,
                  C. Bannwarth, S. Ehlert          DFT functionals, gCP, sTDA/sTD-DF
   Ed Valeev, F. Pavosevic, A. Kumar             : LibInt (2-el integral package), F12 methods
   Garnet Chan, S. Sharma, J. Yang, R. Olivares  : DMRG
   Ulf Ekstrom                                   : XCFun DFT Library
   Mihaly Kallay                                 : mrcc  (arbitrary order and MRCC methods)
   Jiri Pittner, Ondrej Demel                    : Mk-CCSD
   Frank Weinhold                                : gennbo (NPA and NBO analysis)
   Christopher J. Cramer and Donald G. Truhlar   : smd solvation model
   Lars Goerigk                                  : TD-DFT with DH, B97 family of functionals
   V. Asgeirsson, H. Jonsson                     : NEB implementation
   FAccTs GmbH                                   : IRC, NEB, NEB-TS, DLPNO-Multilevel, CI-OPT
                                                   MM, QMMM, 2- and 3-layer-ONIOM, Crystal-QMMM,
                                                   LR-CPCM, SF, NACMEs, symmetry and pop. for TD-DFT,
                                                   nearIR, NL-DFT gradient (VV10), updates on ESD,
                                                   ML-optimized integration grids
   S Lehtola, MJT Oliveira, MAL Marques          : LibXC Library
   Liviu Ungur et al                             : ANISO software


 Your calculation uses the libint2 library for the computation of 2-el integrals
 For citations please refer to: http://libint.valeyev.net

 Your ORCA version has been built with support for libXC version: 5.1.0
 For citations please refer to: https://tddft.org/programs/libxc/

 This ORCA versions uses:
   CBLAS   interface :  Fast vector & matrix operations
   LAPACKE interface :  Fast linear algebra routines
   SCALAPACK package :  Parallel linear algebra routines
   Shared memory     :  Shared parallel matrices
   BLAS/LAPACK       :  OpenBLAS 0.3.15  USE64BITINT DYNAMIC_ARCH NO_AFFINITY SkylakeX SINGLE_THREADED
        Core in use  :  SkylakeX
   Copyright (c) 2011-2014, The OpenBLAS Project


Your calculation utilizes the atom-pairwise dispersion correction
with the zero-damping scheme (D30)
Cite in your paper:
S.Grimme, J.Antony, S.Ehrlich and H.Krieg, J.Chem.Phys., 132, (2010), 154104 
   

XCFun DFT library Copyright 2009-2010 Ulf Ekstrom and contributors.
See http://admol.org/xcfun for more information.
This is free software; see the source code for copying conditions.
There is ABSOLUTELY NO WARRANTY; not even for MERCHANTABILITY or FITNESS FOR A PARTICULAR PURPOSE.
For details see the documentation.
Scientific users of this library should cite U. Ekstrom, L. Visscher, R. Bast, A. J. Thorvaldsen and K. Ruud;
J.Chem.Theor.Comp. 2010, DOI: 10.1021/ct100117s
XCFun Version 0.99 

================================================================================

----- Orbital basis set information -----
Your calculation utilizes the basis: def2-TZVPD
   F. Weigend and R. Ahlrichs, Phys. Chem. Chem. Phys. 7, 3297 (2005).
   D. Rappoport and F. Furche, J. Chem. Phys. 133 134105 (2010).

----- AuxJ basis set information -----
Your calculation utilizes the auxiliary basis: def2/J
   F. Weigend, Phys. Chem. Chem. Phys. 8, 1057 (2006).

================================================================================
                                        WARNINGS
                       Please study these warnings very carefully!
================================================================================


WARNING: Geometry Optimization
  ===> : Switching off AutoStart
         For restart on a previous wavefunction, please use MOREAD

INFO   : the flag for use of the SHARK integral package has been found!

================================================================================
                                       INPUT FILE
================================================================================
NAME = /beegfs/scratch/ispackman/PFAS_EPR_calcs/benchmark/JChemEd_CF3_radical/CH3_radical_119.5_degrees_IN-PROGRESS/CH3_radical_119.5_degrees.inp
|  1> ! UKS TightSCF wB97x-D3 def2-TZVPD xyzfile opt freq
|  2> 
|  3> # CH3 radical 119.5 degrees fixed
|  4> 
|  5> %maxcore 1000
|  6> %pal
|  7> nprocs 18
|  8> end
|  9> 
| 10> %geom Constraints
| 11>         { A * 0 * C }
| 12>     end
| 13> end
| 14> * xyz 0 2
| 15> C 0.00 0.00 0.00
| 16> H 1.0772690288 0.0000000000 -0.0767557142
| 17> H -0.5386345144 0.9329423456 -0.0767557142
| 18> H -0.5386345144 -0.9329423456 -0.0767557142
| 19> **                         ****END OF INPUT****
================================================================================

                       *****************************
                       * Geometry Optimization Run *
                       *****************************

Geometry optimization settings:
Update method            Update   .... BFGS
Choice of coordinates    CoordSys .... Z-matrix Internals
Initial Hessian          InHess   .... Almoef's Model

Convergence Tolerances:
Energy Change            TolE     ....  5.0000e-06 Eh
Max. Gradient            TolMAXG  ....  3.0000e-04 Eh/bohr
RMS Gradient             TolRMSG  ....  1.0000e-04 Eh/bohr
Max. Displacement        TolMAXD  ....  4.0000e-03 bohr
RMS Displacement         TolRMSD  ....  2.0000e-03 bohr
Strict Convergence                ....  False
------------------------------------------------------------------------------
                        ORCA OPTIMIZATION COORDINATE SETUP
------------------------------------------------------------------------------

The optimization will be done in new redundant internal coordinates
Making redundant internal coordinates   ...  (new redundants) done
Evaluating the initial hessian          ...  (Almloef) done
Evaluating the coordinates              ...  done
Calculating the B-matrix                .... done
Calculating the G-matrix                .... done
Diagonalizing the G-matrix              .... done
Imposing constraints:
 Iter   0:  RMS(Cart)=    0.0000000000 RMS(Int)=    0.0000000000
CONVERGED
Will constrain atom 0 coordinate 1 
Will constrain atom 0 coordinate 2 
Will constrain atom 1 coordinate 2 
The first mode is                       ....    1
The number of degrees of freedom        ....    6
Storing new coordinates                 .... done

    -----------------------------------------------------------------
                    Redundant Internal Coordinates


    -----------------------------------------------------------------
         Definition                    Initial Value    Approx d2E/dq
    -----------------------------------------------------------------
      1. B(H   1,C   0)                  1.0800         0.373575   
      2. B(H   2,C   0)                  1.0800         0.373575   
      3. B(H   3,C   0)                  1.0800         0.373575   
      4. A(H   2,C   0,H   3)          119.5000         0.294224 C 
      5. A(H   1,C   0,H   2)          119.5000         0.294224 C 
      6. A(H   1,C   0,H   3)          119.5000         0.294224 C 
      7. I(H   1,H   3,H   2,C   0)     12.1855         0.021228   
    -----------------------------------------------------------------

Number of atoms                         .... 4
Number of degrees of freedom            .... 7

         *************************************************************
         *                GEOMETRY OPTIMIZATION CYCLE   1            *
         *************************************************************
---------------------------------
CARTESIAN COORDINATES (ANGSTROEM)
---------------------------------
  C      0.000000    0.000000    0.000000
  H      1.077269    0.000000   -0.076756
  H     -0.538635    0.932942   -0.076756
  H     -0.538635   -0.932942   -0.076756

----------------------------
CARTESIAN COORDINATES (A.U.)
----------------------------
  NO LB      ZA    FRAG     MASS         X           Y           Z
   0 C     6.0000    0    12.011    0.000000    0.000000    0.000000
   1 H     1.0000    0     1.008    2.035743    0.000000   -0.145047
   2 H     1.0000    0     1.008   -1.017872    1.763006   -0.145047
   3 H     1.0000    0     1.008   -1.017872   -1.763006   -0.145047

--------------------------------
INTERNAL COORDINATES (ANGSTROEM)
--------------------------------
 C      0   0   0     0.000000000000     0.00000000     0.00000000
 H      1   0   0     1.080000000034     0.00000000     0.00000000
 H      1   2   0     1.079999999990   119.50000000     0.00000000
 H      1   2   3     1.079999999990   119.50000000   165.96472636

---------------------------
INTERNAL COORDINATES (A.U.)
---------------------------
 C      0   0   0     0.000000000000     0.00000000     0.00000000
 H      1   0   0     2.040904224700     0.00000000     0.00000000
 H      1   2   0     2.040904224616   119.50000000     0.00000000
 H      1   2   3     2.040904224616   119.50000000   165.96472636

---------------------
BASIS SET INFORMATION
---------------------
There are 2 groups of distinct atoms

 Group   1 Type C   : 12s6p3d1f contracted to 6s3p3d1f pattern {621111/411/111/1}
 Group   2 Type H   : 5s2p contracted to 3s2p pattern {311/11}

Atom   0C    basis set group =>   1
Atom   1H    basis set group =>   2
Atom   2H    basis set group =>   2
Atom   3H    basis set group =>   2
---------------------------------
AUXILIARY/J BASIS SET INFORMATION
---------------------------------
There are 2 groups of distinct atoms

 Group   1 Type C   : 12s5p4d2f1g contracted to 6s4p3d1f1g pattern {711111/2111/211/2/1}
 Group   2 Type H   : 5s2p1d contracted to 3s1p1d pattern {311/2/1}

Atom   0C    basis set group =>   1
Atom   1H    basis set group =>   2
Atom   2H    basis set group =>   2
Atom   3H    basis set group =>   2


           ************************************************************
           *        Program running with 18 parallel MPI-processes    *
           *              working on a common directory               *
           ************************************************************
------------------------------------------------------------------------------
                           ORCA GTO INTEGRAL CALCULATION
                           -- RI-GTO INTEGRALS CHOSEN --
------------------------------------------------------------------------------
------------------------------------------------------------------------------
                   ___                                                        
                  /   \      - P O W E R E D   B Y -                         
                 /     \                                                     
                 |  |  |   _    _      __       _____    __    __             
                 |  |  |  | |  | |    /  \     |  _  \  |  |  /  |          
                  \  \/   | |  | |   /    \    | | | |  |  | /  /          
                 / \  \   | |__| |  /  /\  \   | |_| |  |  |/  /          
                |  |  |   |  __  | /  /__\  \  |    /   |      \           
                |  |  |   | |  | | |   __   |  |    \   |  |\   \          
                \     /   | |  | | |  |  |  |  | |\  \  |  | \   \       
                 \___/    |_|  |_| |__|  |__|  |_| \__\ |__|  \__/        
                                                                              
                      - O R C A' S   B I G   F R I E N D -                    
                                      &                                       
                       - I N T E G R A L  F E E D E R -                       
                                                                              
 v1 FN, 2020, v2 2021                                                         
------------------------------------------------------------------------------


Reading SHARK input file /beegfs/scratch/ispackman/PFAS_EPR_calcs/benchmark/JChemEd_CF3_radical/CH3_radical_119.5_degrees_IN-PROGRESS/CH3_radical_119.5_degrees.SHARKINP.tmp ... ok
----------------------
SHARK INTEGRAL PACKAGE
----------------------

Number of atoms                             ...      4
Number of basis functions                   ...     64
Number of shells                            ...     28
Maximum angular momentum                    ...      3
Integral batch strategy                     ... SHARK/LIBINT Hybrid
RI-J (if used) integral strategy            ... SPLIT-RIJ (Revised 2003 algorithm where possible)
Printlevel                                  ...      1
Contraction scheme used                     ... SEGMENTED contraction
Coulomb Range Separation                    ... NOT USED
Exchange Range Separation                   ... Long Range
   Mu parameter                             ...  0.250000
   Scaling (regular/separated)              ...  0.195728  0.804272
Finite Nucleus Model                        ... NOT USED
Auxiliary Coulomb fitting basis             ... AVAILABLE
   # of basis functions in Aux-J            ...     82
   # of shells in Aux-J                     ...     30
   Maximum angular momentum in Aux-J        ...      4
Auxiliary J/K fitting basis                 ... NOT available
Auxiliary Correlation fitting basis         ... NOT available
Auxiliary 'external' fitting basis          ... NOT available
Integral threshold                          ...     2.500000e-11
Primitive cut-off                           ...     2.500000e-12
Primitive pair pre-selection threshold      ...     2.500000e-12

Calculating pre-screening integrals         ... done (  0.0 sec) Dimension = 28
Organizing shell pair data                  ... done (  0.0 sec)
Shell pair information
Total number of shell pairs                 ...       406
Shell pairs after pre-screening             ...       406
Total number of primitive shell pairs       ...       977
Primitive shell pairs kept                  ...       944
          la=0 lb=0:    120 shell pairs
          la=1 lb=0:    135 shell pairs
          la=1 lb=1:     45 shell pairs
          la=2 lb=0:     45 shell pairs
          la=2 lb=1:     27 shell pairs
          la=2 lb=2:      6 shell pairs
          la=3 lb=0:     15 shell pairs
          la=3 lb=1:      9 shell pairs
          la=3 lb=2:      3 shell pairs
          la=3 lb=3:      1 shell pairs

Calculating one electron integrals          ... done (  0.0 sec)
Calculating RI/J V-Matrix + Cholesky decomp.... done (  0.0 sec)
Calculating Nuclear repulsion               ... done (  0.0 sec) ENN=      9.670439930290 Eh

SHARK setup successfully completed in   0.3 seconds

Maximum memory used throughout the entire GTOINT-calculation: 14.0 MB


           ************************************************************
           *        Program running with 18 parallel MPI-processes    *
           *              working on a common directory               *
           ************************************************************
-------------------------------------------------------------------------------
                                 ORCA SCF
-------------------------------------------------------------------------------

------------
SCF SETTINGS
------------
Hamiltonian:
 Density Functional     Method          .... DFT(GTOs)
 Exchange Functional    Exchange        .... WB97X-D3
 Correlation Functional Correlation     .... WB97X-D3
 Gradients option       PostSCFGGA      .... off
 Hybrid DFT is turned on
   Fraction HF Exchange ScalHFX         ....  0.195728
   Scaling of DF-GGA-X  ScalDFX         ....  0.000000
   Scaling of DF-GGA-C  ScalDFC         ....  1.000000
   Scaling of DF-LDA-C  ScalLDAC        ....  1.000000
   Perturbative correction              ....  0.000000
   Density functional embedding theory  .... OFF
 Long-range corrected/Screened/Range-Separated Hybrid DFT is turned on
   Amount of maximum screened exact exchange              ....  0.804272
   Range separation parameter mu (erf(mu*r12)/r12)        ....  0.250000
 RI-approximation to the Coulomb term is turned on
   Number of AuxJ basis functions       .... 82
   RIJ-COSX (HFX calculated with COS-X)).... on


General Settings:
 Integral files         IntName         .... /beegfs/scratch/ispackman/PFAS_EPR_calcs/benchmark/JChemEd_CF3_radical/CH3_radical_119.5_degrees_IN-PROGRESS/CH3_radical_119.5_degrees
 Hartree-Fock type      HFTyp           .... UHF
 Total Charge           Charge          ....    0
 Multiplicity           Mult            ....    2
 Number of Electrons    NEL             ....    9
 Basis Dimension        Dim             ....   64
 Nuclear Repulsion      ENuc            ....      9.6704399303 Eh

Convergence Acceleration:
 DIIS                   CNVDIIS         .... on
   Start iteration      DIISMaxIt       ....    12
   Startup error        DIISStart       ....  0.200000
   # of expansion vecs  DIISMaxEq       ....     5
   Bias factor          DIISBfac        ....   1.050
   Max. coefficient     DIISMaxC        ....  10.000
 Trust-Rad. Augm. Hess. CNVTRAH         .... auto
   Auto Start mean grad. ratio tolernc. ....  1.125000
   Auto Start start iteration           ....    20
   Auto Start num. interpolation iter.  ....    10
   Max. Number of Micro iterations      ....    16
   Max. Number of Macro iterations      .... Maxiter - #DIIS iter
   Number of Davidson start vectors     ....     2
   Converg. threshold I  (grad. norm)   ....   1.000e-05
   Converg. threshold II (energy diff.) ....   1.000e-08
   Grad. Scal. Fac. for Micro threshold ....   0.100
   Minimum threshold for Micro iter.    ....   0.010
   NR start threshold (gradient norm)   ....   0.001
   Initial trust radius                 ....   0.400
   Minimum AH scaling param. (alpha)    ....   1.000
   Maximum AH scaling param. (alpha)    .... 1000.000
   Orbital update algorithm             .... Taylor
   White noise on init. David. guess    .... on
   Maximum white noise                  ....   0.010
   Quad. conv. algorithm                .... NR
 SOSCF                  CNVSOSCF        .... off
 Level Shifting         CNVShift        .... on
   Level shift para.    LevelShift      ....    0.2500
   Turn off err/grad.   ShiftErr        ....    0.0010
 Zerner damping         CNVZerner       .... off
 Static damping         CNVDamp         .... on
   Fraction old density DampFac         ....    0.7000
   Max. Damping (<1)    DampMax         ....    0.9800
   Min. Damping (>=0)   DampMin         ....    0.0000
   Turn off err/grad.   DampErr         ....    0.1000
 Fernandez-Rico         CNVRico         .... off

SCF Procedure:
 Maximum # iterations   MaxIter         ....   125
 SCF integral mode      SCFMode         .... Direct
   Integral package                     .... SHARK and LIBINT hybrid scheme
 Reset frequency        DirectResetFreq ....    20
 Integral Threshold     Thresh          ....  2.500e-11 Eh
 Primitive CutOff       TCut            ....  2.500e-12 Eh

Convergence Tolerance:
 Convergence Check Mode ConvCheckMode   .... Total+1el-Energy
 Convergence forced     ConvForced      .... 0
 Energy Change          TolE            ....  1.000e-08 Eh
 1-El. energy change                    ....  1.000e-05 Eh
 DIIS Error             TolErr          ....  5.000e-07


Diagonalization of the overlap matrix:
Smallest eigenvalue                        ... 6.705e-05
Time for diagonalization                   ...    0.002 sec
Threshold for overlap eigenvalues          ... 1.000e-08
Number of eigenvalues below threshold      ... 0
Time for construction of square roots      ...    0.014 sec
Total time needed                          ...    0.017 sec

Time for model grid setup =    0.038 sec

------------------------------
INITIAL GUESS: MODEL POTENTIAL
------------------------------
Loading Hartree-Fock densities                     ... done
Calculating cut-offs                               ... done
Initializing the effective Hamiltonian             ... done
Setting up the integral package (SHARK)            ... done
Starting the Coulomb interaction                   ... done (   0.1 sec)
Reading the grid                                   ... done
Mapping shells                                     ... done
Starting the XC term evaluation                    ... done (   0.0 sec)
  promolecular density results
     # of electrons  =      8.998467920
     EX              =     -5.932320859
     EC              =     -0.258853311
     EX+EC           =     -6.191174170
Transforming the Hamiltonian                       ... done (   0.0 sec)
Diagonalizing the Hamiltonian                      ... done (   0.0 sec)
Back transforming the eigenvectors                 ... done (   0.0 sec)
Now organizing SCF variables                       ... done
                      ------------------
                      INITIAL GUESS DONE (   0.1 sec)
                      ------------------
-------------------
DFT GRID GENERATION
-------------------

General Integration Accuracy     IntAcc      ... 4.388
Radial Grid Type                 RadialGrid  ... OptM3 with GC (2021)
Angular Grid (max. ang.)         AngularGrid ... 4 (Lebedev-302)
Angular grid pruning method      GridPruning ... 4 (adaptive)
Weight generation scheme         WeightScheme... Becke
Basis function cutoff            BFCut       ... 1.0000e-11
Integration weight cutoff        WCut        ... 1.0000e-14
Angular grids for H and He will be reduced by one unit
Partially contracted basis set               ... off
Rotationally invariant grid construction     ... off

Total number of grid points                  ...    17025
Total number of batches                      ...      269
Average number of points per batch           ...       63
Average number of grid points per atom       ...     4256
Time for grid setup =    0.095 sec

--------------------
COSX GRID GENERATION
--------------------

GRIDX 1
-------
General Integration Accuracy     IntAcc      ... 3.816
Radial Grid Type                 RadialGrid  ... OptM3 with GC (2021)
Angular Grid (max. ang.)         AngularGrid ... 1 (Lebedev-50)
Angular grid pruning method      GridPruning ... 4 (adaptive)
Weight generation scheme         WeightScheme... Becke
Basis function cutoff            BFCut       ... 1.0000e-11
Integration weight cutoff        WCut        ... 1.0000e-14
Angular grids for H and He will be reduced by one unit
Partially contracted basis set               ... on
Rotationally invariant grid construction     ... off

Total number of grid points                  ...     2142
Total number of batches                      ...       35
Average number of points per batch           ...       61
Average number of grid points per atom       ...      536
UseSFitting                                  ... on

GRIDX 2
-------
General Integration Accuracy     IntAcc      ... 4.020
Radial Grid Type                 RadialGrid  ... OptM3 with GC (2021)
Angular Grid (max. ang.)         AngularGrid ... 2 (Lebedev-110)
Angular grid pruning method      GridPruning ... 4 (adaptive)
Weight generation scheme         WeightScheme... Becke
Basis function cutoff            BFCut       ... 1.0000e-11
Integration weight cutoff        WCut        ... 1.0000e-14
Angular grids for H and He will be reduced by one unit
Partially contracted basis set               ... on
Rotationally invariant grid construction     ... off

Total number of grid points                  ...     5028
Total number of batches                      ...       80
Average number of points per batch           ...       62
Average number of grid points per atom       ...     1257
UseSFitting                                  ... on

GRIDX 3
-------
General Integration Accuracy     IntAcc      ... 4.338
Radial Grid Type                 RadialGrid  ... OptM3 with GC (2021)
Angular Grid (max. ang.)         AngularGrid ... 3 (Lebedev-194)
Angular grid pruning method      GridPruning ... 4 (adaptive)
Weight generation scheme         WeightScheme... Becke
Basis function cutoff            BFCut       ... 1.0000e-11
Integration weight cutoff        WCut        ... 1.0000e-14
Angular grids for H and He will be reduced by one unit
Partially contracted basis set               ... on
Rotationally invariant grid construction     ... off

Total number of grid points                  ...    11724
Total number of batches                      ...      185
Average number of points per batch           ...       63
Average number of grid points per atom       ...     2931
UseSFitting                                  ... on

Time for X-Grid setup             =    0.238 sec

--------------
SCF ITERATIONS
--------------
ITER       Energy         Delta-E        Max-DP      RMS-DP      [F,P]     Damp
               ***  Starting incremental Fock matrix formation  ***
  0    -39.8025528005   0.000000000000 0.01616630  0.00056102  0.0798657 0.7000
  1    -39.8165989470  -0.014046146509 0.01070559  0.00046607  0.0508155 0.7000
                               ***Turning on DIIS***
  2    -39.8244111987  -0.007812251710 0.02810327  0.00110868  0.0289364 0.0000
  3    -39.8375695112  -0.013158312490 0.00901731  0.00036951  0.0201867 0.0000
  4    -39.8392331200  -0.001663608822 0.00207189  0.00009287  0.0037033 0.0000
  5    -39.8393001722  -0.000067052200 0.00110158  0.00005263  0.0015961 0.0000
  6    -39.8393185041  -0.000018331864 0.00082286  0.00003628  0.0006878 0.0000
               *** Restarting incremental Fock matrix formation ***
                                   *** Resetting DIIS ***
  7    -39.8393111233   0.000007380788 0.00021115  0.00000954  0.0000966 0.0000
  8    -39.8393112344  -0.000000111090 0.00007865  0.00000391  0.0000595 0.0000
  9    -39.8393112607  -0.000000026308 0.00002050  0.00000129  0.0000256 0.0000
 10    -39.8393112646  -0.000000003940 0.00000599  0.00000033  0.0000048 0.0000
                 **** Energy Check signals convergence ****

               *****************************************************
               *                     SUCCESS                       *
               *           SCF CONVERGED AFTER  11 CYCLES          *
               *****************************************************

Old exchange energy                            =     -2.172604642 Eh
New exchange energy                            =     -2.172607414 Eh
Exchange energy change after final integration =     -0.000002772 Eh
Total energy after final integration           =    -39.839314037 Eh
Final COS-X integration done in                =     0.121 sec

----------------
TOTAL SCF ENERGY
----------------

Total Energy       :          -39.83931404 Eh           -1084.08285 eV

Components:
Nuclear Repulsion  :            9.67043993 Eh             263.14605 eV
Electronic Energy  :          -49.50975397 Eh           -1347.22890 eV
One Electron Energy:          -71.65613311 Eh           -1949.86251 eV
Two Electron Energy:           22.14637914 Eh             602.63361 eV
Max COSX asymmetry :            0.00000011 Eh               0.00000 eV

Virial components:
Potential Energy   :          -79.46317446 Eh           -2162.30291 eV
Kinetic Energy     :           39.62386042 Eh            1078.22006 eV
Virial Ratio       :            2.00543747


DFT components:
N(Alpha)           :        5.000001632863 electrons
N(Beta)            :        4.000000246431 electrons
N(Total)           :        9.000001879294 electrons
E(XC)              :       -4.311283225376 Eh       
DFET-embed. en.    :        0.000000000000 Eh       

---------------
SCF CONVERGENCE
---------------

  Last Energy change         ...   -3.0618e-10  Tolerance :   1.0000e-08
  Last MAX-Density change    ...    0.0000e+00  Tolerance :   1.0000e-07
  Last RMS-Density change    ...    0.0000e+00  Tolerance :   5.0000e-09
  Last DIIS Error            ...    6.9840e-07  Tolerance :   5.0000e-07

             **** THE GBW FILE WAS UPDATED (/beegfs/scratch/ispackman/PFAS_EPR_calcs/benchmark/JChemEd_CF3_radical/CH3_radical_119.5_degrees_IN-PROGRESS/CH3_radical_119.5_degrees.gbw) ****
             **** DENSITY /beegfs/scratch/ispackman/PFAS_EPR_calcs/benchmark/JChemEd_CF3_radical/CH3_radical_119.5_degrees_IN-PROGRESS/CH3_radical_119.5_degrees.scfp WAS UPDATED ****
             **** ENERGY FILE WAS UPDATED (/beegfs/scratch/ispackman/PFAS_EPR_calcs/benchmark/JChemEd_CF3_radical/CH3_radical_119.5_degrees_IN-PROGRESS/CH3_radical_119.5_degrees.en.tmp) ****
----------------------
UHF SPIN CONTAMINATION
----------------------

Warning: in a DFT calculation there is little theoretical justification to 
         calculate <S**2> as in Hartree-Fock theory. We will do it anyways
         but you should keep in mind that the values have only limited relevance

Expectation value of <S**2>     :     0.753836
Ideal value S*(S+1) for S=0.5   :     0.750000
Deviation                       :     0.003836

             **** THE GBW FILE WAS UPDATED (/beegfs/scratch/ispackman/PFAS_EPR_calcs/benchmark/JChemEd_CF3_radical/CH3_radical_119.5_degrees_IN-PROGRESS/CH3_radical_119.5_degrees.gbw) ****
             **** DENSITY /beegfs/scratch/ispackman/PFAS_EPR_calcs/benchmark/JChemEd_CF3_radical/CH3_radical_119.5_degrees_IN-PROGRESS/CH3_radical_119.5_degrees.scfp WAS UPDATED ****
----------------
ORBITAL ENERGIES
----------------
                 SPIN UP ORBITALS
  NO   OCC          E(Eh)            E(eV) 
   0   1.0000     -10.285711      -279.8884 
   1   1.0000      -0.802559       -21.8387 
   2   1.0000      -0.520671       -14.1682 
   3   1.0000      -0.520669       -14.1681 
   4   1.0000      -0.328168        -8.9299 
   5   0.0000       0.076377         2.0783 
   6   0.0000       0.161185         4.3861 
   7   0.0000       0.161186         4.3861 
   8   0.0000       0.196763         5.3542 
   9   0.0000       0.205094         5.5809 
  10   0.0000       0.205095         5.5809 
  11   0.0000       0.238029         6.4771 
  12   0.0000       0.258140         7.0243 
  13   0.0000       0.258146         7.0245 
  14   0.0000       0.305206         8.3051 
  15   0.0000       0.367309         9.9950 
  16   0.0000       0.368916        10.0387 
  17   0.0000       0.370008        10.0684 
  18   0.0000       0.370011        10.0685 
  19   0.0000       0.394701        10.7404 
  20   0.0000       0.394702        10.7404 
  21   0.0000       0.480990        13.0884 
  22   0.0000       0.480999        13.0887 
  23   0.0000       0.495074        13.4716 
  24   0.0000       0.518299        14.1036 
  25   0.0000       0.522327        14.2132 
  26   0.0000       0.522330        14.2133 
  27   0.0000       0.775990        21.1158 
  28   0.0000       0.802618        21.8403 
  29   0.0000       0.802634        21.8408 
  30   0.0000       0.882777        24.0216 
  31   0.0000       0.882810        24.0225 
  32   0.0000       1.033554        28.1244 
  33   0.0000       1.033570        28.1249 
  34   0.0000       1.076333        29.2885 
  35   0.0000       1.546128        42.0723 
  36   0.0000       1.665076        45.3090 
  37   0.0000       1.720244        46.8102 
  38   0.0000       1.859588        50.6020 
  39   0.0000       1.859700        50.6050 
  40   0.0000       1.972808        53.6828 
  41   0.0000       1.992630        54.2222 
  42   0.0000       1.992639        54.2225 
  43   0.0000       2.290652        62.3318 
  44   0.0000       2.300475        62.5991 
  45   0.0000       2.300476        62.5991 
  46   0.0000       2.547066        69.3092 
  47   0.0000       2.547168        69.3120 
  48   0.0000       2.707181        73.6661 
  49   0.0000       2.707211        73.6670 
  50   0.0000       2.755947        74.9931 
  51   0.0000       3.158174        85.9383 
  52   0.0000       3.158202        85.9390 
  53   0.0000       3.220944        87.6463 
  54   0.0000       3.271539        89.0231 
  55   0.0000       3.271550        89.0234 
  56   0.0000       3.381804        92.0236 
  57   0.0000       3.381863        92.0252 
  58   0.0000       3.640486        99.0626 
  59   0.0000       3.740127       101.7740 
  60   0.0000       4.298271       116.9619 
  61   0.0000       4.298312       116.9630 
  62   0.0000       4.749958       129.2529 
  63   0.0000      22.203462       604.1869 

                 SPIN DOWN ORBITALS
  NO   OCC          E(Eh)            E(eV) 
   0   1.0000     -10.275637      -279.6143 
   1   1.0000      -0.757199       -20.6044 
   2   1.0000      -0.508139       -13.8272 
   3   1.0000      -0.508132       -13.8270 
   4   0.0000       0.009456         0.2573 
   5   0.0000       0.086584         2.3561 
   6   0.0000       0.164745         4.4829 
   7   0.0000       0.164750         4.4831 
   8   0.0000       0.205185         5.5834 
   9   0.0000       0.205186         5.5834 
  10   0.0000       0.219719         5.9788 
  11   0.0000       0.264048         7.1851 
  12   0.0000       0.264051         7.1852 
  13   0.0000       0.270034         7.3480 
  14   0.0000       0.316099         8.6015 
  15   0.0000       0.369028        10.0418 
  16   0.0000       0.374364        10.1870 
  17   0.0000       0.376558        10.2467 
  18   0.0000       0.376569        10.2470 
  19   0.0000       0.398851        10.8533 
  20   0.0000       0.398860        10.8535 
  21   0.0000       0.485145        13.2015 
  22   0.0000       0.485160        13.2019 
  23   0.0000       0.521498        14.1907 
  24   0.0000       0.522009        14.2046 
  25   0.0000       0.522018        14.2048 
  26   0.0000       0.530508        14.4359 
  27   0.0000       0.787459        21.4279 
  28   0.0000       0.808484        22.0000 
  29   0.0000       0.808499        22.0004 
  30   0.0000       0.914408        24.8823 
  31   0.0000       0.914431        24.8829 
  32   0.0000       1.038609        28.2620 
  33   0.0000       1.038621        28.2623 
  34   0.0000       1.098635        29.8954 
  35   0.0000       1.606823        43.7239 
  36   0.0000       1.664413        45.2910 
  37   0.0000       1.738560        47.3086 
  38   0.0000       1.873826        50.9894 
  39   0.0000       1.873922        50.9920 
  40   0.0000       1.990383        54.1611 
  41   0.0000       2.003243        54.5110 
  42   0.0000       2.003247        54.5111 
  43   0.0000       2.293350        62.4052 
  44   0.0000       2.306396        62.7602 
  45   0.0000       2.306400        62.7603 
  46   0.0000       2.561173        69.6931 
  47   0.0000       2.561228        69.6946 
  48   0.0000       2.715440        73.8909 
  49   0.0000       2.715445        73.8910 
  50   0.0000       2.798629        76.1546 
  51   0.0000       3.222121        87.6784 
  52   0.0000       3.222142        87.6789 
  53   0.0000       3.270046        88.9825 
  54   0.0000       3.310439        90.0816 
  55   0.0000       3.310501        90.0833 
  56   0.0000       3.408384        92.7468 
  57   0.0000       3.408420        92.7478 
  58   0.0000       3.683447       100.2317 
  59   0.0000       3.751405       102.0809 
  60   0.0000       4.319643       117.5435 
  61   0.0000       4.319701       117.5450 
  62   0.0000       4.773259       129.8870 
  63   0.0000      22.224321       604.7545 

                    ********************************
                    * MULLIKEN POPULATION ANALYSIS *
                    ********************************

--------------------------------------------
MULLIKEN ATOMIC CHARGES AND SPIN POPULATIONS
--------------------------------------------
   0 C :   -0.758070    0.922754
   1 H :    0.252867    0.025726
   2 H :    0.252601    0.025760
   3 H :    0.252602    0.025760
Sum of atomic charges         :    0.0000000
Sum of atomic spin populations:    1.0000000

-----------------------------------------------------
MULLIKEN REDUCED ORBITAL CHARGES AND SPIN POPULATIONS
-----------------------------------------------------
CHARGE
  0 C s       :     3.471766  s :     3.471766
      pz      :     0.931131  p :     3.253841
      px      :     1.161281
      py      :     1.161430
      dz2     :     0.004732  d :     0.030332
      dxz     :     0.000485
      dyz     :     0.000487
      dx2y2   :     0.012315
      dxy     :     0.012312
      f0      :     0.000059  f :     0.002130
      f+1     :     0.000500
      f-1     :     0.000500
      f+2     :    -0.000008
      f-2     :    -0.000008
      f+3     :     0.001088
      f-3     :     0.000000
  1 H s       :     0.695173  s :     0.695173
      pz      :     0.022778  p :     0.051960
      px      :     0.019757
      py      :     0.009425
  2 H s       :     0.695439  s :     0.695439
      pz      :     0.022740  p :     0.051960
      px      :     0.012024
      py      :     0.017195
  3 H s       :     0.695439  s :     0.695439
      pz      :     0.022740  p :     0.051959
      px      :     0.012024
      py      :     0.017195

SPIN
  0 C s       :    -0.050583  s :    -0.050583
      pz      :     0.928353  p :     0.977733
      px      :     0.024735
      py      :     0.024644
      dz2     :    -0.004643  d :    -0.002959
      dxz     :    -0.000122
      dyz     :    -0.000123
      dx2y2   :     0.000961
      dxy     :     0.000968
      f0      :     0.000000  f :    -0.001437
      f+1     :    -0.000675
      f-1     :    -0.000675
      f+2     :    -0.000002
      f-2     :    -0.000002
      f+3     :    -0.000083
      f-3     :     0.000000
  1 H s       :    -0.005190  s :    -0.005190
      pz      :     0.022689  p :     0.030916
      px      :     0.005339
      py      :     0.002887
  2 H s       :    -0.005124  s :    -0.005124
      pz      :     0.022653  p :     0.030884
      px      :     0.003489
      py      :     0.004741
  3 H s       :    -0.005123  s :    -0.005123
      pz      :     0.022653  p :     0.030884
      px      :     0.003489
      py      :     0.004741


                     *******************************
                     * LOEWDIN POPULATION ANALYSIS *
                     *******************************

-------------------------------------------
LOEWDIN ATOMIC CHARGES AND SPIN POPULATIONS
-------------------------------------------
   0 C :    0.060248    0.835492
   1 H :   -0.020093    0.054828
   2 H :   -0.020077    0.054840
   3 H :   -0.020077    0.054840

----------------------------------------------------
LOEWDIN REDUCED ORBITAL CHARGES AND SPIN POPULATIONS
----------------------------------------------------
CHARGE
  0 C s       :     2.911961  s :     2.911961
      pz      :     0.795104  p :     2.911883
      px      :     1.058384
      py      :     1.058395
      dz2     :     0.012044  d :     0.107057
      dxz     :     0.000879
      dyz     :     0.000881
      dx2y2   :     0.046628
      dxy     :     0.046625
      f0      :     0.000135  f :     0.008852
      f+1     :     0.002375
      f-1     :     0.002374
      f+2     :     0.000148
      f-2     :     0.000149
      f+3     :     0.003671
      f-3     :     0.000000
  1 H s       :     0.761112  s :     0.761112
      pz      :     0.067776  p :     0.258981
      px      :     0.126072
      py      :     0.065133
  2 H s       :     0.761109  s :     0.761109
      pz      :     0.067766  p :     0.258969
      px      :     0.080365
      py      :     0.110838
  3 H s       :     0.761108  s :     0.761108
      pz      :     0.067766  p :     0.258969
      px      :     0.080365
      py      :     0.110838

SPIN
  0 C s       :     0.023657  s :     0.023657
      pz      :     0.793016  p :     0.822829
      px      :     0.014918
      py      :     0.014896
      dz2     :    -0.004476  d :    -0.009302
      dxz     :    -0.000108
      dyz     :    -0.000109
      dx2y2   :    -0.002307
      dxy     :    -0.002301
      f0      :     0.000044  f :    -0.001692
      f+1     :    -0.000645
      f-1     :    -0.000644
      f+2     :    -0.000008
      f-2     :    -0.000008
      f+3     :    -0.000432
      f-3     :     0.000000
  1 H s       :    -0.015530  s :    -0.015530
      pz      :     0.067364  p :     0.070358
      px      :     0.003466
      py      :    -0.000472
  2 H s       :    -0.015511  s :    -0.015511
      pz      :     0.067357  p :     0.070351
      px      :     0.000513
      py      :     0.002481
  3 H s       :    -0.015511  s :    -0.015511
      pz      :     0.067357  p :     0.070351
      px      :     0.000513
      py      :     0.002481


                      *****************************
                      * MAYER POPULATION ANALYSIS *
                      *****************************

  NA   - Mulliken gross atomic population
  ZA   - Total nuclear charge
  QA   - Mulliken gross atomic charge
  VA   - Mayer's total valence
  BVA  - Mayer's bonded valence
  FA   - Mayer's free valence

  ATOM       NA         ZA         QA         VA         BVA        FA
  0 C      6.7581     6.0000    -0.7581     3.7060     2.8323     0.8737
  1 H      0.7471     1.0000     0.2529     0.9935     0.9920     0.0016
  2 H      0.7474     1.0000     0.2526     0.9938     0.9922     0.0016
  3 H      0.7474     1.0000     0.2526     0.9938     0.9922     0.0016

  Mayer bond orders larger than 0.100000
B(  0-C ,  1-H ) :   0.9440 B(  0-C ,  2-H ) :   0.9442 B(  0-C ,  3-H ) :   0.9442 


-------
TIMINGS
-------

Total SCF time: 0 days 0 hours 0 min 7 sec 

Total time                  ....       7.646 sec
Sum of individual times     ....       6.953 sec  ( 90.9%)

Fock matrix formation       ....       5.862 sec  ( 76.7%)
  Split-RI-J                ....       0.806 sec  ( 13.7% of F)
  Chain of spheres X        ....       1.333 sec  ( 22.7% of F)
  XC integration            ....       1.224 sec  ( 20.9% of F)
    Basis function eval.    ....       0.052 sec  (  4.2% of XC)
    Density eval.           ....       0.051 sec  (  4.1% of XC)
    XC-Functional eval.     ....       0.053 sec  (  4.4% of XC)
    XC-Potential eval.      ....       0.073 sec  (  5.9% of XC)
Diagonalization             ....       0.159 sec  (  2.1%)
Density matrix formation    ....       0.007 sec  (  0.1%)
Population analysis         ....       0.137 sec  (  1.8%)
Initial guess               ....       0.091 sec  (  1.2%)
Orbital Transformation      ....       0.000 sec  (  0.0%)
Orbital Orthonormalization  ....       0.000 sec  (  0.0%)
DIIS solution               ....       0.324 sec  (  4.2%)
Grid generation             ....       0.371 sec  (  4.9%)

Maximum memory used throughout the entire SCF-calculation: 58.5 MB


-------------------------------------------------------------------------------
                          DFT DISPERSION CORRECTION                            
                                                                               
                              DFTD3 V3.1  Rev 1                                
                              USING zero damping                               
-------------------------------------------------------------------------------
The omegaB97X-D3 functional is recognized. Fit by Chai et al.
Active option DFTDOPT                   ...         3   

molecular C6(AA) [au] = 106.962389 


            DFT-D V3
 parameters
 s6 scaling factor         :     1.0000 
 rs6 scaling factor        :     1.2810 
 s8 scaling factor         :     1.0000 
 rs8 scaling factor        :     1.0940 
 Damping factor alpha6     :    14.0000 
 Damping factor alpha8     :    16.0000 
 ad hoc parameters k1-k3   :    16.0000     1.3333    -4.0000 

 Edisp/kcal,au: -0.011337376230  -0.000018067257 
 E6   /kcal   :  -0.001770336 
 E8   /kcal   :  -0.009567040 
 % E8         :  84.384955595 

-------------------------   ----------------
Dispersion correction           -0.000018067
-------------------------   ----------------


-------------------------   --------------------
FINAL SINGLE POINT ENERGY       -39.839332103977
-------------------------   --------------------



           ************************************************************
           *        Program running with 18 parallel MPI-processes    *
           *              working on a common directory               *
           ************************************************************
------------------------------------------------------------------------------
                         ORCA SCF GRADIENT CALCULATION
------------------------------------------------------------------------------

 ... reading COSX grid (gridx3)
Gradient of the Kohn-Sham DFT energy:
Kohn-Sham wavefunction type      ... UKS
Hartree-Fock exchange scaling    ...    0.196
Number of operators              ...    2
Number of atoms                  ...    4
Basis set dimensions             ...   64
Integral neglect threshold       ... 2.5e-11
Integral primitive cutoff        ... 2.5e-12
SHARK Integral package           ... ON

Nuc. rep. gradient       (SHARK) ... done (  0.0 sec)
HCore & Overlap gradient (SHARK) ... done (  0.0 sec)
RI-J gradient            (SHARK) ... done (  0.1 sec)
COSX-gradient                    ... done (  0.1 sec)
Exchange-correlation gradient    ... done
Dispersion correction            ... done

------------------
CARTESIAN GRADIENT
------------------

WARNING: THERE ARE 3 CONSTRAINED CARTESIAN COORDINATES
   1   C   :    0.000017268   -0.000000174    0.003987925
   2   H   :   -0.000101356   -0.000000023   -0.001299826
   3   H   :    0.000039342   -0.000104038   -0.001347863
   4   H   :    0.000039334    0.000104011   -0.001347894

Difference to translation invariance:
           :   -0.0000054114   -0.0000002240   -0.0000076589

Difference to rotation invariance:
           :    0.0000000473   -0.0000945344   -0.0000000361

Norm of the cartesian gradient     ...    0.0046110687
RMS gradient                       ...    0.0013311009
MAX gradient                       ...    0.0039879247

-------
TIMINGS
-------

Total SCF gradient time            ...        0.610 sec

One electron gradient       ....       0.007 sec  (  1.1%)
RI-J Coulomb gradient       ....       0.144 sec  ( 23.5%)
COSX gradient               ....       0.121 sec  ( 19.8%)
XC gradient                 ....       0.062 sec  ( 10.1%)

Maximum memory used throughout the entire SCFGRAD-calculation: 33.6 MB
------------------------------------------------------------------------------
                         ORCA GEOMETRY RELAXATION STEP
------------------------------------------------------------------------------

Reading the OPT-File                    .... done
Getting information on internals        .... done
Copying old internal coords+grads       .... done
Making the new internal coordinates     .... (new redundants).... done
Validating the new internal coordinates .... (new redundants).... done
Calculating the B-matrix                .... done
Calculating the G,G- and P matrices     .... done
Transforming gradient to internals      .... done
Projecting the internal gradient        .... done
Number of atoms                         ....   4
Number of internal coordinates          ....   7
Current Energy                          ....   -39.839332104 Eh
Current gradient norm                   ....     0.004611069 Eh/bohr
Maximum allowed component of the step   ....  0.300
Current trust radius                    ....  0.300
Evaluating the initial hessian          ....  (Almloef) done
Projecting the Hessian                  .... done
Forming the augmented Hessian           .... done
Diagonalizing the augmented Hessian     .... done
Last element of RFO vector              ....  0.999999998
Lowest eigenvalues of augmented Hessian:
 -0.000000001  0.373574723  0.373574723  0.373574725 1000.000000000
Length of the computed step             ....  0.000060090
The final length of the internal step   ....  0.000060090
Converting the step to cartesian space:
 Initial RMS(Int)=    0.0000227118
Transforming coordinates:
 Iter   0:  RMS(Cart)=    0.0000169252 RMS(Int)=    0.0000227118
 Iter   1:  RMS(Cart)=    0.0000000000 RMS(Int)=    0.0000000000
Imposing constraints:
 Iter   0:  RMS(Cart)=    0.0000000002 RMS(Int)=    0.0000000038
CONVERGED
done
Storing new coordinates                 .... done

                                .--------------------.
          ----------------------|Geometry convergence|-------------------------
          Item                value                   Tolerance       Converged
          ---------------------------------------------------------------------
          RMS gradient        0.0000084845            0.0001000000      YES
          MAX gradient        0.0000153593            0.0003000000      YES
          RMS step            0.0000227118            0.0020000000      YES
          MAX step            0.0000411144            0.0040000000      YES
          ........................................................
          Max(Bonds)      0.0000      Max(Angles)    0.00
          Max(Dihed)        0.00      Max(Improp)    0.00
          ---------------------------------------------------------------------

                    ***********************HURRAY********************
                    ***        THE OPTIMIZATION HAS CONVERGED     ***
                    *************************************************


    ---------------------------------------------------------------------------
                         Redundant Internal Coordinates

                          --- Optimized Parameters ---  
                            (Angstroem and degrees)

        Definition                    OldVal   dE/dq     Step     FinalVal
    ----------------------------------------------------------------------------
     1. B(H   1,C   0)                1.0800 -0.000006  0.0000    1.0800   
     2. B(H   2,C   0)                1.0800 -0.000015  0.0000    1.0800   
     3. B(H   3,C   0)                1.0800 -0.000015  0.0000    1.0800   
     4. A(H   2,C   0,H   3)          119.50 -0.000467   -0.00    119.50 C 
     5. A(H   1,C   0,H   2)          119.50 -0.000103    0.00    119.50 C 
     6. A(H   1,C   0,H   3)          119.50 -0.000103   -0.00    119.50 C 
     7. I(H   1,H   3,H   2,C   0)     12.19  0.002695    0.00     12.19   
    ----------------------------------------------------------------------------
                 *******************************************************
                 *** FINAL ENERGY EVALUATION AT THE STATIONARY POINT ***
                 ***               (AFTER    1 CYCLES)               ***
                 *******************************************************
---------------------------------
CARTESIAN COORDINATES (ANGSTROEM)
---------------------------------
  C      0.000003    0.000000    0.000001
  H      1.077281    0.000000   -0.076756
  H     -0.538642    0.932961   -0.076756
  H     -0.538642   -0.932961   -0.076756

----------------------------
CARTESIAN COORDINATES (A.U.)
----------------------------
  NO LB      ZA    FRAG     MASS         X           Y           Z
   0 C     6.0000    0    12.011    0.000006    0.000000    0.000002
   1 H     1.0000    0     1.008    2.035765    0.000000   -0.145048
   2 H     1.0000    0     1.008   -1.017886    1.763041   -0.145048
   3 H     1.0000    0     1.008   -1.017886   -1.763041   -0.145048

--------------------------------
INTERNAL COORDINATES (ANGSTROEM)
--------------------------------
 C      0   0   0     0.000000000000     0.00000000     0.00000000
 H      1   0   0     1.080008288085     0.00000000     0.00000000
 H      1   2   0     1.080021657976   119.50000000     0.00000000
 H      1   2   3     1.080021756812   119.50000000   165.96472642

---------------------------
INTERNAL COORDINATES (A.U.)
---------------------------
 C      0   0   0     0.000000000000     0.00000000     0.00000000
 H      1   0   0     2.040919886846     0.00000000     0.00000000
 H      1   2   0     2.040945152279   119.50000000     0.00000000
 H      1   2   3     2.040945339051   119.50000000   165.96472642

---------------------
BASIS SET INFORMATION
---------------------
There are 2 groups of distinct atoms

 Group   1 Type C   : 12s6p3d1f contracted to 6s3p3d1f pattern {621111/411/111/1}
 Group   2 Type H   : 5s2p contracted to 3s2p pattern {311/11}

Atom   0C    basis set group =>   1
Atom   1H    basis set group =>   2
Atom   2H    basis set group =>   2
Atom   3H    basis set group =>   2
---------------------------------
AUXILIARY/J BASIS SET INFORMATION
---------------------------------
There are 2 groups of distinct atoms

 Group   1 Type C   : 12s5p4d2f1g contracted to 6s4p3d1f1g pattern {711111/2111/211/2/1}
 Group   2 Type H   : 5s2p1d contracted to 3s1p1d pattern {311/2/1}

Atom   0C    basis set group =>   1
Atom   1H    basis set group =>   2
Atom   2H    basis set group =>   2
Atom   3H    basis set group =>   2


           ************************************************************
           *        Program running with 18 parallel MPI-processes    *
           *              working on a common directory               *
           ************************************************************
------------------------------------------------------------------------------
                           ORCA GTO INTEGRAL CALCULATION
                           -- RI-GTO INTEGRALS CHOSEN --
------------------------------------------------------------------------------
------------------------------------------------------------------------------
                   ___                                                        
                  /   \      - P O W E R E D   B Y -                         
                 /     \                                                     
                 |  |  |   _    _      __       _____    __    __             
                 |  |  |  | |  | |    /  \     |  _  \  |  |  /  |          
                  \  \/   | |  | |   /    \    | | | |  |  | /  /          
                 / \  \   | |__| |  /  /\  \   | |_| |  |  |/  /          
                |  |  |   |  __  | /  /__\  \  |    /   |      \           
                |  |  |   | |  | | |   __   |  |    \   |  |\   \          
                \     /   | |  | | |  |  |  |  | |\  \  |  | \   \       
                 \___/    |_|  |_| |__|  |__|  |_| \__\ |__|  \__/        
                                                                              
                      - O R C A' S   B I G   F R I E N D -                    
                                      &                                       
                       - I N T E G R A L  F E E D E R -                       
                                                                              
 v1 FN, 2020, v2 2021                                                         
------------------------------------------------------------------------------


Reading SHARK input file /beegfs/scratch/ispackman/PFAS_EPR_calcs/benchmark/JChemEd_CF3_radical/CH3_radical_119.5_degrees_IN-PROGRESS/CH3_radical_119.5_degrees.SHARKINP.tmp ... ok
----------------------
SHARK INTEGRAL PACKAGE
----------------------

Number of atoms                             ...      4
Number of basis functions                   ...     64
Number of shells                            ...     28
Maximum angular momentum                    ...      3
Integral batch strategy                     ... SHARK/LIBINT Hybrid
RI-J (if used) integral strategy            ... SPLIT-RIJ (Revised 2003 algorithm where possible)
Printlevel                                  ...      1
Contraction scheme used                     ... SEGMENTED contraction
Coulomb Range Separation                    ... NOT USED
Exchange Range Separation                   ... Long Range
   Mu parameter                             ...  0.250000
   Scaling (regular/separated)              ...  0.195728  0.804272
Finite Nucleus Model                        ... NOT USED
Auxiliary Coulomb fitting basis             ... AVAILABLE
   # of basis functions in Aux-J            ...     82
   # of shells in Aux-J                     ...     30
   Maximum angular momentum in Aux-J        ...      4
Auxiliary J/K fitting basis                 ... NOT available
Auxiliary Correlation fitting basis         ... NOT available
Auxiliary 'external' fitting basis          ... NOT available
Integral threshold                          ...     2.500000e-11
Primitive cut-off                           ...     2.500000e-12
Primitive pair pre-selection threshold      ...     2.500000e-12

Calculating pre-screening integrals         ... done (  0.0 sec) Dimension = 28
Organizing shell pair data                  ... done (  0.0 sec)
Shell pair information
Total number of shell pairs                 ...       406
Shell pairs after pre-screening             ...       406
Total number of primitive shell pairs       ...       977
Primitive shell pairs kept                  ...       944
          la=0 lb=0:    120 shell pairs
          la=1 lb=0:    135 shell pairs
          la=1 lb=1:     45 shell pairs
          la=2 lb=0:     45 shell pairs
          la=2 lb=1:     27 shell pairs
          la=2 lb=2:      6 shell pairs
          la=3 lb=0:     15 shell pairs
          la=3 lb=1:      9 shell pairs
          la=3 lb=2:      3 shell pairs
          la=3 lb=3:      1 shell pairs

Calculating one electron integrals          ... done (  0.0 sec)
Calculating RI/J V-Matrix + Cholesky decomp.... done (  0.1 sec)
Calculating Nuclear repulsion               ... done (  0.0 sec) ENN=      9.670285615326 Eh

SHARK setup successfully completed in   0.3 seconds

Maximum memory used throughout the entire GTOINT-calculation: 14.0 MB


           ************************************************************
           *        Program running with 18 parallel MPI-processes    *
           *              working on a common directory               *
           ************************************************************
-------------------------------------------------------------------------------
                                 ORCA SCF
-------------------------------------------------------------------------------

------------
SCF SETTINGS
------------
Hamiltonian:
 Density Functional     Method          .... DFT(GTOs)
 Exchange Functional    Exchange        .... WB97X-D3
 Correlation Functional Correlation     .... WB97X-D3
 Gradients option       PostSCFGGA      .... off
 Hybrid DFT is turned on
   Fraction HF Exchange ScalHFX         ....  0.195728
   Scaling of DF-GGA-X  ScalDFX         ....  0.000000
   Scaling of DF-GGA-C  ScalDFC         ....  1.000000
   Scaling of DF-LDA-C  ScalLDAC        ....  1.000000
   Perturbative correction              ....  0.000000
   Density functional embedding theory  .... OFF
 Long-range corrected/Screened/Range-Separated Hybrid DFT is turned on
   Amount of maximum screened exact exchange              ....  0.804272
   Range separation parameter mu (erf(mu*r12)/r12)        ....  0.250000
 RI-approximation to the Coulomb term is turned on
   Number of AuxJ basis functions       .... 82
   RIJ-COSX (HFX calculated with COS-X)).... on


General Settings:
 Integral files         IntName         .... /beegfs/scratch/ispackman/PFAS_EPR_calcs/benchmark/JChemEd_CF3_radical/CH3_radical_119.5_degrees_IN-PROGRESS/CH3_radical_119.5_degrees
 Hartree-Fock type      HFTyp           .... UHF
 Total Charge           Charge          ....    0
 Multiplicity           Mult            ....    2
 Number of Electrons    NEL             ....    9
 Basis Dimension        Dim             ....   64
 Nuclear Repulsion      ENuc            ....      9.6702856153 Eh

Convergence Acceleration:
 DIIS                   CNVDIIS         .... on
   Start iteration      DIISMaxIt       ....    12
   Startup error        DIISStart       ....  0.200000
   # of expansion vecs  DIISMaxEq       ....     5
   Bias factor          DIISBfac        ....   1.050
   Max. coefficient     DIISMaxC        ....  10.000
 Trust-Rad. Augm. Hess. CNVTRAH         .... auto
   Auto Start mean grad. ratio tolernc. ....  1.125000
   Auto Start start iteration           ....     1
   Auto Start num. interpolation iter.  ....    10
   Max. Number of Micro iterations      ....    16
   Max. Number of Macro iterations      .... Maxiter - #DIIS iter
   Number of Davidson start vectors     ....     2
   Converg. threshold I  (grad. norm)   ....   1.000e-05
   Converg. threshold II (energy diff.) ....   1.000e-08
   Grad. Scal. Fac. for Micro threshold ....   0.100
   Minimum threshold for Micro iter.    ....   0.010
   NR start threshold (gradient norm)   ....   0.001
   Initial trust radius                 ....   0.400
   Minimum AH scaling param. (alpha)    ....   1.000
   Maximum AH scaling param. (alpha)    .... 1000.000
   Orbital update algorithm             .... Taylor
   White noise on init. David. guess    .... on
   Maximum white noise                  ....   0.010
   Quad. conv. algorithm                .... NR
 SOSCF                  CNVSOSCF        .... off
 Level Shifting         CNVShift        .... on
   Level shift para.    LevelShift      ....    0.2500
   Turn off err/grad.   ShiftErr        ....    0.0010
 Zerner damping         CNVZerner       .... off
 Static damping         CNVDamp         .... on
   Fraction old density DampFac         ....    0.7000
   Max. Damping (<1)    DampMax         ....    0.9800
   Min. Damping (>=0)   DampMin         ....    0.0000
   Turn off err/grad.   DampErr         ....    0.1000
 Fernandez-Rico         CNVRico         .... off

SCF Procedure:
 Maximum # iterations   MaxIter         ....   125
 SCF integral mode      SCFMode         .... Direct
   Integral package                     .... SHARK and LIBINT hybrid scheme
 Reset frequency        DirectResetFreq ....    20
 Integral Threshold     Thresh          ....  2.500e-11 Eh
 Primitive CutOff       TCut            ....  2.500e-12 Eh

Convergence Tolerance:
 Convergence Check Mode ConvCheckMode   .... Total+1el-Energy
 Convergence forced     ConvForced      .... 0
 Energy Change          TolE            ....  1.000e-08 Eh
 1-El. energy change                    ....  1.000e-05 Eh
 DIIS Error             TolErr          ....  5.000e-07


Diagonalization of the overlap matrix:
Smallest eigenvalue                        ... 6.705e-05
Time for diagonalization                   ...    0.002 sec
Threshold for overlap eigenvalues          ... 1.000e-08
Number of eigenvalues below threshold      ... 0
Time for construction of square roots      ...    0.012 sec
Total time needed                          ...    0.014 sec

---------------------
INITIAL GUESS: MOREAD
---------------------
Guess MOs are being read from file: /beegfs/scratch/ispackman/PFAS_EPR_calcs/benchmark/JChemEd_CF3_radical/CH3_radical_119.5_degrees_IN-PROGRESS/CH3_radical_119.5_degrees.gbw
Input Geometry matches current geometry (good)
Input basis set matches current basis set (good)
MOs were renormalized
MOs were reorthogonalized (Cholesky)
                      ------------------
                      INITIAL GUESS DONE (   0.0 sec)
                      ------------------
-------------------
DFT GRID GENERATION
-------------------

General Integration Accuracy     IntAcc      ... 4.388
Radial Grid Type                 RadialGrid  ... OptM3 with GC (2021)
Angular Grid (max. ang.)         AngularGrid ... 4 (Lebedev-302)
Angular grid pruning method      GridPruning ... 4 (adaptive)
Weight generation scheme         WeightScheme... Becke
Basis function cutoff            BFCut       ... 1.0000e-11
Integration weight cutoff        WCut        ... 1.0000e-14
Angular grids for H and He will be reduced by one unit
Partially contracted basis set               ... off
Rotationally invariant grid construction     ... off

Total number of grid points                  ...    17025
Total number of batches                      ...      268
Average number of points per batch           ...       63
Average number of grid points per atom       ...     4256
Time for grid setup =    0.094 sec

--------------------
COSX GRID GENERATION
--------------------

GRIDX 1
-------
General Integration Accuracy     IntAcc      ... 3.816
Radial Grid Type                 RadialGrid  ... OptM3 with GC (2021)
Angular Grid (max. ang.)         AngularGrid ... 1 (Lebedev-50)
Angular grid pruning method      GridPruning ... 4 (adaptive)
Weight generation scheme         WeightScheme... Becke
Basis function cutoff            BFCut       ... 1.0000e-11
Integration weight cutoff        WCut        ... 1.0000e-14
Angular grids for H and He will be reduced by one unit
Partially contracted basis set               ... on
Rotationally invariant grid construction     ... off

Total number of grid points                  ...     2142
Total number of batches                      ...       35
Average number of points per batch           ...       61
Average number of grid points per atom       ...      536
UseSFitting                                  ... on

GRIDX 2
-------
General Integration Accuracy     IntAcc      ... 4.020
Radial Grid Type                 RadialGrid  ... OptM3 with GC (2021)
Angular Grid (max. ang.)         AngularGrid ... 2 (Lebedev-110)
Angular grid pruning method      GridPruning ... 4 (adaptive)
Weight generation scheme         WeightScheme... Becke
Basis function cutoff            BFCut       ... 1.0000e-11
Integration weight cutoff        WCut        ... 1.0000e-14
Angular grids for H and He will be reduced by one unit
Partially contracted basis set               ... on
Rotationally invariant grid construction     ... off

Total number of grid points                  ...     5028
Total number of batches                      ...       81
Average number of points per batch           ...       62
Average number of grid points per atom       ...     1257
UseSFitting                                  ... on

GRIDX 3
-------
General Integration Accuracy     IntAcc      ... 4.338
Radial Grid Type                 RadialGrid  ... OptM3 with GC (2021)
Angular Grid (max. ang.)         AngularGrid ... 3 (Lebedev-194)
Angular grid pruning method      GridPruning ... 4 (adaptive)
Weight generation scheme         WeightScheme... Becke
Basis function cutoff            BFCut       ... 1.0000e-11
Integration weight cutoff        WCut        ... 1.0000e-14
Angular grids for H and He will be reduced by one unit
Partially contracted basis set               ... on
Rotationally invariant grid construction     ... off

Total number of grid points                  ...    11724
Total number of batches                      ...      185
Average number of points per batch           ...       63
Average number of grid points per atom       ...     2931
UseSFitting                                  ... on

Time for X-Grid setup             =    0.329 sec

--------------
SCF ITERATIONS
--------------
ITER       Energy         Delta-E        Max-DP      RMS-DP      [F,P]     Damp
               ***  Starting incremental Fock matrix formation  ***
  0    -39.8393112822   0.000000000000 0.00000114  0.00000006  0.0000059 0.7000
  1    -39.8393112823  -0.000000000077 0.00000205  0.00000006  0.0000042 0.7000
                               ***Turning on DIIS***
  2    -39.8393112823  -0.000000000027 0.00001739  0.00000043  0.0000028 0.0000
               *** Restarting incremental Fock matrix formation ***
                                   *** Resetting DIIS ***
                            ***DIIS convergence achieved***

               *****************************************************
               *                     SUCCESS                       *
               *           SCF CONVERGED AFTER   3 CYCLES          *
               *****************************************************

Old exchange energy                            =     -2.172599655 Eh
New exchange energy                            =     -2.172602406 Eh
Exchange energy change after final integration =     -0.000002751 Eh
Total energy after final integration           =    -39.839314033 Eh
Final COS-X integration done in                =     0.120 sec

----------------
TOTAL SCF ENERGY
----------------

Total Energy       :          -39.83931403 Eh           -1084.08285 eV

Components:
Nuclear Repulsion  :            9.67028562 Eh             263.14185 eV
Electronic Energy  :          -49.50959965 Eh           -1347.22470 eV
One Electron Energy:          -71.65583770 Eh           -1949.85447 eV
Two Electron Energy:           22.14623806 Eh             602.62977 eV
Max COSX asymmetry :            0.00000011 Eh               0.00000 eV

Virial components:
Potential Energy   :          -79.46309295 Eh           -2162.30069 eV
Kinetic Energy     :           39.62377892 Eh            1078.21784 eV
Virial Ratio       :            2.00543954


DFT components:
N(Alpha)           :        5.000001632901 electrons
N(Beta)            :        4.000000246318 electrons
N(Total)           :        9.000001879219 electrons
E(XC)              :       -4.311267480736 Eh       
DFET-embed. en.    :        0.000000000000 Eh       

---------------
SCF CONVERGENCE
---------------

  Last Energy change         ...   -6.5008e-11  Tolerance :   1.0000e-08
  Last MAX-Density change    ...    0.0000e+00  Tolerance :   1.0000e-07
  Last RMS-Density change    ...    0.0000e+00  Tolerance :   5.0000e-09
  Last DIIS Error            ...    9.6615e-07  Tolerance :   5.0000e-07

             **** THE GBW FILE WAS UPDATED (/beegfs/scratch/ispackman/PFAS_EPR_calcs/benchmark/JChemEd_CF3_radical/CH3_radical_119.5_degrees_IN-PROGRESS/CH3_radical_119.5_degrees.gbw) ****
             **** DENSITY /beegfs/scratch/ispackman/PFAS_EPR_calcs/benchmark/JChemEd_CF3_radical/CH3_radical_119.5_degrees_IN-PROGRESS/CH3_radical_119.5_degrees.scfp WAS UPDATED ****
             **** ENERGY FILE WAS UPDATED (/beegfs/scratch/ispackman/PFAS_EPR_calcs/benchmark/JChemEd_CF3_radical/CH3_radical_119.5_degrees_IN-PROGRESS/CH3_radical_119.5_degrees.en.tmp) ****
----------------------
UHF SPIN CONTAMINATION
----------------------

Warning: in a DFT calculation there is little theoretical justification to 
         calculate <S**2> as in Hartree-Fock theory. We will do it anyways
         but you should keep in mind that the values have only limited relevance

Expectation value of <S**2>     :     0.753836
Ideal value S*(S+1) for S=0.5   :     0.750000
Deviation                       :     0.003836

             **** THE GBW FILE WAS UPDATED (/beegfs/scratch/ispackman/PFAS_EPR_calcs/benchmark/JChemEd_CF3_radical/CH3_radical_119.5_degrees_IN-PROGRESS/CH3_radical_119.5_degrees.gbw) ****
             **** DENSITY /beegfs/scratch/ispackman/PFAS_EPR_calcs/benchmark/JChemEd_CF3_radical/CH3_radical_119.5_degrees_IN-PROGRESS/CH3_radical_119.5_degrees.scfp WAS UPDATED ****
----------------
ORBITAL ENERGIES
----------------
                 SPIN UP ORBITALS
  NO   OCC          E(Eh)            E(eV) 
   0   1.0000     -10.285712      -279.8884 
   1   1.0000      -0.802553       -21.8386 
   2   1.0000      -0.520665       -14.1680 
   3   1.0000      -0.520664       -14.1680 
   4   1.0000      -0.328167        -8.9299 
   5   0.0000       0.076376         2.0783 
   6   0.0000       0.161184         4.3860 
   7   0.0000       0.161186         4.3861 
   8   0.0000       0.196763         5.3542 
   9   0.0000       0.205094         5.5809 
  10   0.0000       0.205095         5.5809 
  11   0.0000       0.238029         6.4771 
  12   0.0000       0.258139         7.0243 
  13   0.0000       0.258146         7.0245 
  14   0.0000       0.305202         8.3050 
  15   0.0000       0.367307         9.9949 
  16   0.0000       0.368915        10.0387 
  17   0.0000       0.370002        10.0683 
  18   0.0000       0.370010        10.0685 
  19   0.0000       0.394701        10.7403 
  20   0.0000       0.394701        10.7404 
  21   0.0000       0.480990        13.0884 
  22   0.0000       0.481001        13.0887 
  23   0.0000       0.495073        13.4716 
  24   0.0000       0.518302        14.1037 
  25   0.0000       0.522328        14.2133 
  26   0.0000       0.522331        14.2133 
  27   0.0000       0.775988        21.1157 
  28   0.0000       0.802608        21.8401 
  29   0.0000       0.802632        21.8407 
  30   0.0000       0.882779        24.0216 
  31   0.0000       0.882812        24.0225 
  32   0.0000       1.033554        28.1244 
  33   0.0000       1.033570        28.1249 
  34   0.0000       1.076332        29.2885 
  35   0.0000       1.546123        42.0721 
  36   0.0000       1.665069        45.3088 
  37   0.0000       1.720259        46.8106 
  38   0.0000       1.859598        50.6022 
  39   0.0000       1.859714        50.6054 
  40   0.0000       1.972799        53.6826 
  41   0.0000       1.992622        54.2220 
  42   0.0000       1.992627        54.2221 
  43   0.0000       2.290652        62.3318 
  44   0.0000       2.300457        62.5986 
  45   0.0000       2.300464        62.5988 
  46   0.0000       2.547060        69.3090 
  47   0.0000       2.547163        69.3118 
  48   0.0000       2.707159        73.6655 
  49   0.0000       2.707194        73.6665 
  50   0.0000       2.755936        74.9928 
  51   0.0000       3.158180        85.9384 
  52   0.0000       3.158206        85.9391 
  53   0.0000       3.220931        87.6460 
  54   0.0000       3.271527        89.0228 
  55   0.0000       3.271529        89.0228 
  56   0.0000       3.381804        92.0236 
  57   0.0000       3.381866        92.0252 
  58   0.0000       3.640467        99.0621 
  59   0.0000       3.740099       101.7733 
  60   0.0000       4.298227       116.9607 
  61   0.0000       4.298286       116.9623 
[...]

  NA   - Mulliken gross atomic population
  ZA   - Total nuclear charge
  QA   - Mulliken gross atomic charge
  VA   - Mayer's total valence
  BVA  - Mayer's bonded valence
  FA   - Mayer's free valence

  ATOM       NA         ZA         QA         VA         BVA        FA
  0 C      6.7580     6.0000    -0.7580     3.7060     2.8323     0.8737
  1 H      0.7471     1.0000     0.2529     0.9935     0.9920     0.0016
  2 H      0.7474     1.0000     0.2526     0.9938     0.9923     0.0016
  3 H      0.7474     1.0000     0.2526     0.9938     0.9923     0.0016

  Mayer bond orders larger than 0.100000
B(  0-C ,  1-H ) :   0.9440 B(  0-C ,  2-H ) :   0.9442 B(  0-C ,  3-H ) :   0.9442 


-------
TIMINGS
-------

Total SCF time: 0 days 0 hours 0 min 3 sec 

Total time                  ....       3.254 sec
Sum of individual times     ....       2.690 sec  ( 82.7%)

Fock matrix formation       ....       2.033 sec  ( 62.5%)
  Split-RI-J                ....       0.380 sec  ( 18.7% of F)
  Chain of spheres X        ....       0.581 sec  ( 28.6% of F)
  XC integration            ....       0.406 sec  ( 20.0% of F)
    Basis function eval.    ....       0.018 sec  (  4.4% of XC)
    Density eval.           ....       0.017 sec  (  4.1% of XC)
    XC-Functional eval.     ....       0.018 sec  (  4.3% of XC)
    XC-Potential eval.      ....       0.019 sec  (  4.7% of XC)
Diagonalization             ....       0.059 sec  (  1.8%)
Density matrix formation    ....       0.007 sec  (  0.2%)
Population analysis         ....       0.139 sec  (  4.3%)
Initial guess               ....       0.005 sec  (  0.1%)
Orbital Transformation      ....       0.000 sec  (  0.0%)
Orbital Orthonormalization  ....       0.002 sec  (  0.1%)
DIIS solution               ....       0.025 sec  (  0.8%)
Grid generation             ....       0.423 sec  ( 13.0%)

Maximum memory used throughout the entire SCF-calculation: 58.5 MB


-------------------------------------------------------------------------------
                          DFT DISPERSION CORRECTION                            
                                                                               
                              DFTD3 V3.1  Rev 1                                
                              USING zero damping                               
-------------------------------------------------------------------------------
The omegaB97X-D3 functional is recognized. Fit by Chai et al.
Active option DFTDOPT                   ...         3   

molecular C6(AA) [au] = 106.962426 


            DFT-D V3
 parameters
 s6 scaling factor         :     1.0000 
 rs6 scaling factor        :     1.2810 
 s8 scaling factor         :     1.0000 
 rs8 scaling factor        :     1.0940 
 Damping factor alpha6     :    14.0000 
 Damping factor alpha8     :    16.0000 
 ad hoc parameters k1-k3   :    16.0000     1.3333    -4.0000 

 Edisp/kcal,au: -0.011338819151  -0.000018069557 
 E6   /kcal   :  -0.001770563 
 E8   /kcal   :  -0.009568256 
 % E8         :  84.384946557 

-------------------------   ----------------
Dispersion correction           -0.000018070
-------------------------   ----------------


-------------------------   --------------------
FINAL SINGLE POINT ENERGY       -39.839332102966
-------------------------   --------------------

                                *** OPTIMIZATION RUN DONE ***

                            ***************************************
                            *     ORCA property calculations      *
                            ***************************************

                                    ---------------------
                                    Active property flags
                                    ---------------------
   (+) Dipole Moment


------------------------------------------------------------------------------
                       ORCA ELECTRIC PROPERTIES CALCULATION
------------------------------------------------------------------------------

Dipole Moment Calculation                       ... on
Quadrupole Moment Calculation                   ... off
Polarizability Calculation                      ... off
GBWName                                         ... /beegfs/scratch/ispackman/PFAS_EPR_calcs/benchmark/JChemEd_CF3_radical/CH3_radical_119.5_degrees_IN-PROGRESS/CH3_radical_119.5_degrees.gbw
Electron density                                ... /beegfs/scratch/ispackman/PFAS_EPR_calcs/benchmark/JChemEd_CF3_radical/CH3_radical_119.5_degrees_IN-PROGRESS/CH3_radical_119.5_degrees.scfp
The origin for moment calculation is the CENTER OF MASS  = ( 0.000005,  0.000000 -0.029172)

-------------
DIPOLE MOMENT
-------------
                                X             Y             Z
Electronic contribution:     -0.00003       0.00000       0.10839
Nuclear contribution   :     -0.00001      -0.00000      -0.17258
                        -----------------------------------------
Total Dipole Moment    :     -0.00004      -0.00000      -0.06419
                        -----------------------------------------
Magnitude (a.u.)       :      0.06419
Magnitude (Debye)      :      0.16316



--------------------
Rotational spectrum 
--------------------
 
Rotational constants in cm-1:     9.529675     9.529518     4.803446 
Rotational constants in MHz : 285692.463145 285687.768147 144003.685844 

 Dipole components along the rotational axes: 
x,y,z [a.u.] :     0.000000    -0.000042    -0.064190 
x,y,z [Debye]:     0.000000    -0.000107    -0.163158 

 


           ************************************************************
           *        Program running with 18 parallel MPI-processes    *
           *              working on a common directory               *
           ************************************************************

-------------------------------------------------------------------------------
                               ORCA SCF HESSIAN
-------------------------------------------------------------------------------

                   --------- SHARK INITIALIZATION DONE ---------

Hessian of the Kohn-Sham DFT energy:
Kohn-Sham wavefunction type                      ... UKS
Hartree-Fock exchange scaling                    ...    0.196
Number of operators                              ...    2
Number of atoms                                  ...    4
Basis set dimensions                             ...   64
Integral neglect threshold                       ... 2.5e-11
Integral primitive cutoff                        ... 2.5e-12

Setting up DFT Hessian calculations              ... 

HESS GRID
---------

General Integration Accuracy     IntAcc      ... 4.629
Radial Grid Type                 RadialGrid  ... OptM3 with GC (2021)
Angular Grid (max. ang.)         AngularGrid ... 5 (Lebedev-434)
Angular grid pruning method      GridPruning ... 4 (adaptive)
Weight generation scheme         WeightScheme... Becke
Basis function cutoff            BFCut       ... 1.0000e-11
Integration weight cutoff        WCut        ... 1.0000e-14
Angular grids for H and He will be reduced by one unit
Partially contracted basis set               ... off
Rotationally invariant grid construction     ... off

Total number of grid points                  ...    27230
Total number of batches                      ...      427
Average number of points per batch           ...       63
Average number of grid points per atom       ...     6808

Building densities                               ... done   (      0.0 sec)
Calculating rho(r) on the grid                   ... done   (      0.1 sec)
Building xc-kernel on the grid                   ... done   (      0.1 sec)
                                                     done   (      0.4 sec)

Nuclear repulsion Hessian  (SHARK)               ... done   (      0.0 sec)

----------------------------------------------
Forming right-hand sides of CP-SCF equations     ...
----------------------------------------------
One electron integral derivatives  (SHARK)       ... done   (      0.0 sec)
Transforming the overlap derivative matrices     ... done   (      0.0 sec)
Making the Q(x) pseudodensities                  ... done   (      0.0 sec)
Adding the E*S(x)*S(y) terms to the Hessian      ... done   (      0.0 sec)
Calculating energy weighted overlap derivatives  ... done   (      0.0 sec)
Two electron integral derivatives (SHARK-RI)     ... done   (      0.5 sec)
Exchange-correlation integral derivatives        ... done   (      0.4 sec)
tr(F(y)Q(x)) contribution to the Hessian         ... done   (      0.0 sec)
Response fock operator R(S(x)) (SHARK-RIJCOSX)   ... done   (      0.5 sec)
XC Response fock operator R(S(x))                ... done   (      0.1 sec)
tr(F(y)S(x)) contribution to the Hessian         ... done   (      0.0 sec)
Transforming and finalizing RHSs                 ... done   (      0.0 sec)

----------------------------------------------
Solving the CP-SCF equations (RIJCOSX)           ...
----------------------------------------------
     CP-SCF ITERATION   0:   8.2627e-02 (   0.3 sec   0/ 12 done)
     CP-SCF ITERATION   1:   2.8059e-02 (   0.3 sec   0/ 12 done)
     CP-SCF ITERATION   2:   8.0409e-03 (   0.3 sec   0/ 12 done)
     CP-SCF ITERATION   3:   2.2633e-03 (   0.3 sec   0/ 12 done)
     CP-SCF ITERATION   4:   4.6713e-04 (   0.3 sec   2/ 12 done)
     CP-SCF ITERATION   5:   6.6991e-05 (   0.3 sec  12/ 12 done)
                    *** THE CP-SCF HAS CONVERGED ***

                                                 ... done   (      2.0 sec)
Forming perturbed density Hessian contributions  ... done   (      0.0 sec)
2nd integral derivative contribs (SHARK-RI)      ... done   (      0.7 sec)
Exchange-correlation Hessian                     ... done   (      0.3 sec)
Dispersion correction in the Hessian             ... done   (      0.1 sec)
Dipole derivatives                               ... (center of mass:  0.000005,  0.000000 -0.029172)done   (      0.1 sec)

Total SCF Hessian time: 0 days 0 hours 0 min 5 sec 

Writing the Hessian file to the disk             ... done


Maximum memory used throughout the entire SCFHESS-calculation: 109.4 MB

-----------------------
VIBRATIONAL FREQUENCIES
-----------------------

Scaling factor for frequencies =  1.000000000  (already applied!)

   0:         0.00 cm**-1
   1:         0.00 cm**-1
   2:         0.00 cm**-1
   3:         0.00 cm**-1
   4:         0.00 cm**-1
   5:         0.00 cm**-1
   6:       584.55 cm**-1
   7:      1404.86 cm**-1
   8:      1406.85 cm**-1
   9:      3130.04 cm**-1
  10:      3307.30 cm**-1
  11:      3307.92 cm**-1


------------
NORMAL MODES
------------

These modes are the Cartesian displacements weighted by the diagonal matrix
M(i,i)=1/sqrt(m[i]) where m[i] is the mass of the displaced atom
Thus, these vectors are normalized but *not* orthogonal

                  0          1          2          3          4          5    
      0       0.000000   0.000000   0.000000   0.000000   0.000000   0.000000
      1       0.000000   0.000000   0.000000   0.000000   0.000000   0.000000
      2       0.000000   0.000000   0.000000   0.000000   0.000000   0.000000
      3       0.000000   0.000000   0.000000   0.000000   0.000000   0.000000
      4       0.000000   0.000000   0.000000   0.000000   0.000000   0.000000
      5       0.000000   0.000000   0.000000   0.000000   0.000000   0.000000
      6       0.000000   0.000000   0.000000   0.000000   0.000000   0.000000
      7       0.000000   0.000000   0.000000   0.000000   0.000000   0.000000
      8       0.000000   0.000000   0.000000   0.000000   0.000000   0.000000
      9       0.000000   0.000000   0.000000   0.000000   0.000000   0.000000
     10       0.000000   0.000000   0.000000   0.000000   0.000000   0.000000
     11       0.000000   0.000000   0.000000   0.000000   0.000000   0.000000
                  6          7          8          9         10         11    
      0       0.000905  -0.091837  -0.000002   0.000111   0.100026   0.000048
      1      -0.000000  -0.000002   0.091820  -0.000000   0.000048  -0.100045
      2      -0.143490  -0.001242  -0.000000  -0.008190   0.000028   0.000000
      3       0.040910  -0.077717  -0.000002  -0.577297  -0.809581  -0.000391
      4       0.000000   0.000021  -0.807610  -0.000000   0.000008  -0.015538
      5       0.570445  -0.047047  -0.000001   0.032594   0.056505   0.000027
      6      -0.025845   0.586021  -0.383549   0.287985  -0.190973  -0.357681
      7       0.031195   0.383788  -0.143236  -0.498805   0.357961   0.603997
      8       0.569669   0.030921   0.045008   0.032499  -0.028393  -0.049053
      9      -0.025846   0.586001   0.383580   0.287986  -0.191320   0.357494
     10      -0.031195  -0.383780  -0.143256   0.498807  -0.358547   0.603647
     11       0.569669   0.030924  -0.045006   0.032499  -0.028440   0.049025


-----------
IR SPECTRUM
-----------

 Mode   freq       eps      Int      T**2         TX        TY        TZ
       cm**-1   L/(mol*cm) km/mol    a.u.
----------------------------------------------------------------------------
  6:    584.55   0.014760   74.59  0.007880  (-0.000048  0.000000  0.088767)
  7:   1404.86   0.000549    2.77  0.000122  ( 0.011027  0.000000  0.000608)
  8:   1406.85   0.000556    2.81  0.000123  ( 0.000000 -0.011103  0.000000)
  9:   3130.04   0.000001    0.00  0.000000  ( 0.000085 -0.000000 -0.000238)
 10:   3307.30   0.000995    5.03  0.000094  ( 0.009688  0.000005 -0.000015)
 11:   3307.92   0.000960    4.85  0.000091  ( 0.000005 -0.009517 -0.000000)

* The epsilon (eps) is given for a Dirac delta lineshape.
** The dipole moment derivative (T) already includes vibrational overlap.

The first frequency considered to be a vibration is 6
The total number of vibrations considered is 6


--------------------------
THERMOCHEMISTRY AT 298.15K
--------------------------

Temperature         ... 298.15 K
Pressure            ... 1.00 atm
Total Mass          ... 15.03 AMU

Throughout the following assumptions are being made:
  (1) The electronic state is orbitally nondegenerate
      but the spin degeneracy is treated
  (2) There are no thermally accessible electronically excited states
  (3) Hindered rotations indicated by low frequency modes are not
      treated as such but are treated as vibrations and this may
      cause some error
  (4) All equations used are the standard statistical mechanics
      equations for an ideal gas
  (5) All vibrations are strictly harmonic

freq.     584.55  E(vib)   ...       0.11 
freq.    1404.86  E(vib)   ...       0.00 
freq.    1406.85  E(vib)   ...       0.00 
freq.    3130.04  E(vib)   ...       0.00 
freq.    3307.30  E(vib)   ...       0.00 
freq.    3307.92  E(vib)   ...       0.00 

------------
INNER ENERGY
------------

The inner energy is: U= E(el) + E(ZPE) + E(vib) + E(rot) + E(trans)
    E(el)   - is the total energy from the electronic structure calculation
              = E(kin-el) + E(nuc-el) + E(el-el) + E(nuc-nuc)
    E(ZPE)  - the the zero temperature vibrational energy from the frequency calculation
    E(vib)  - the the finite temperature correction to E(ZPE) due to population
              of excited vibrational states
    E(rot)  - is the rotational thermal energy
    E(trans)- is the translational thermal energy

Summary of contributions to the inner energy U:
Electronic energy                ...    -39.83933210 Eh
Zero point energy                ...      0.02993857 Eh      18.79 kcal/mol
Thermal vibrational correction   ...      0.00018320 Eh       0.11 kcal/mol
Thermal rotational correction    ...      0.00141627 Eh       0.89 kcal/mol
Thermal translational correction ...      0.00141627 Eh       0.89 kcal/mol
-----------------------------------------------------------------------
Total thermal energy                    -39.80637779 Eh


Summary of corrections to the electronic energy:
(perhaps to be used in another calculation)
Total thermal correction                  0.00301574 Eh       1.89 kcal/mol
Non-thermal (ZPE) correction              0.02993857 Eh      18.79 kcal/mol
-----------------------------------------------------------------------
Total correction                          0.03295431 Eh      20.68 kcal/mol


--------
ENTHALPY
--------

The enthalpy is H = U + kB*T
                kB is Boltzmann's constant
Total free energy                 ...    -39.80637779 Eh 
Thermal Enthalpy correction       ...      0.00094421 Eh       0.59 kcal/mol
-----------------------------------------------------------------------
Total Enthalpy                    ...    -39.80543358 Eh


Note: Rotational entropy computed according to Herzberg 
Infrared and Raman Spectra, Chapter V,1, Van Nostrand Reinhold, 1945 
Point Group:  C3v, Symmetry Number:   3  
Rotational constants in cm-1:     9.529675     9.529518     4.803446 

Vibrational entropy computed according to the QRRHO of S. Grimme
Chem.Eur.J. 2012 18 9955


-------
ENTROPY
-------

The entropy contributions are T*S = T*(S(el)+S(vib)+S(rot)+S(trans))
     S(el)   - electronic entropy
     S(vib)  - vibrational entropy
     S(rot)  - rotational entropy
     S(trans)- translational entropy
The entropies will be listed as multiplied by the temperature to get
units of energy

Electronic entropy                ...      0.00065446 Eh      0.41 kcal/mol
Vibrational entropy               ...      0.00024357 Eh      0.15 kcal/mol
Rotational entropy                ...      0.00560409 Eh      3.52 kcal/mol
Translational entropy             ...      0.01618771 Eh     10.16 kcal/mol
-----------------------------------------------------------------------
Final entropy term                ...      0.02268982 Eh     14.24 kcal/mol

In case the symmetry of your molecule has not been determined correctly
or in case you have a reason to use a different symmetry number we print 
out the resulting rotational entropy values for sn=1,12 :
 --------------------------------------------------------
|  sn= 1 | S(rot)=       0.00664138 Eh      4.17 kcal/mol|
|  sn= 2 | S(rot)=       0.00598692 Eh      3.76 kcal/mol|
|  sn= 3 | S(rot)=       0.00560409 Eh      3.52 kcal/mol|
|  sn= 4 | S(rot)=       0.00533247 Eh      3.35 kcal/mol|
|  sn= 5 | S(rot)=       0.00512178 Eh      3.21 kcal/mol|
|  sn= 6 | S(rot)=       0.00494963 Eh      3.11 kcal/mol|
|  sn= 7 | S(rot)=       0.00480409 Eh      3.01 kcal/mol|
|  sn= 8 | S(rot)=       0.00467801 Eh      2.94 kcal/mol|
|  sn= 9 | S(rot)=       0.00456680 Eh      2.87 kcal/mol|
|  sn=10 | S(rot)=       0.00446732 Eh      2.80 kcal/mol|
|  sn=11 | S(rot)=       0.00437733 Eh      2.75 kcal/mol|
|  sn=12 | S(rot)=       0.00429518 Eh      2.70 kcal/mol|
 --------------------------------------------------------


-------------------
GIBBS FREE ENERGY
-------------------

The Gibbs free energy is G = H - T*S

Total enthalpy                    ...    -39.80543358 Eh 
Total entropy correction          ...     -0.02268982 Eh    -14.24 kcal/mol
-----------------------------------------------------------------------
Final Gibbs free energy         ...    -39.82812340 Eh

For completeness - the Gibbs free energy minus the electronic energy
G-E(el)                           ...      0.01120870 Eh      7.03 kcal/mol


Timings for individual modules:

Sum of individual times         ...       32.845 sec (=   0.547 min)
GTO integral calculation        ...        5.516 sec (=   0.092 min)  16.8 %
SCF iterations                  ...       15.659 sec (=   0.261 min)  47.7 %
SCF Gradient evaluation         ...        3.101 sec (=   0.052 min)   9.4 %
Geometry relaxation             ...        0.089 sec (=   0.001 min)   0.3 %
Analytical frequency calculation...        8.480 sec (=   0.141 min)  25.8 %
                             ****ORCA TERMINATED NORMALLY****
TOTAL RUN TIME: 0 days 0 hours 0 minutes 36 seconds 297 msec

slurmID:    32260130
totalRuntime[s]:    36.334650568
