
                                 *****************
                                 * O   R   C   A *
                                 *****************

                                            #,                                       
                                            ###                                      
                                            ####                                     
                                            #####                                    
                                            ######                                   
                                           ########,                                 
                                     ,,################,,,,,                         
                               ,,#################################,,                 
                          ,,##########################################,,             
                       ,#########################################, ''#####,          
                    ,#############################################,,   '####,        
                  ,##################################################,,,,####,       
                ,###########''''           ''''###############################       
              ,#####''   ,,,,##########,,,,          '''####'''          '####       
            ,##' ,,,,###########################,,,                        '##       
           ' ,,###''''                  '''############,,,                           
         ,,##''                                '''############,,,,        ,,,,,,###''
      ,#''                                            '''#######################'''  
     '                                                          ''''####''''         
             ,#######,   #######,   ,#######,      ##                                
            ,#'     '#,  ##    ##  ,#'     '#,    #''#        ######   ,####,        
            ##       ##  ##   ,#'  ##            #'  '#       #        #'  '#        
            ##       ##  #######   ##           ,######,      #####,   #    #        
            '#,     ,#'  ##    ##  '#,     ,#' ,#      #,         ##   #,  ,#        
             '#######'   ##     ##  '#######'  #'      '#     #####' # '####'        



                  #######################################################
                  #                        -***-                        #
                  #          Department of theory and spectroscopy      #
                  #    Directorship and core code : Frank Neese         #
                  #        Max Planck Institute fuer Kohlenforschung    #
                  #                Kaiser Wilhelm Platz 1               #
                  #                 D-45470 Muelheim/Ruhr               #
                  #                      Germany                        #
                  #                                                     #
                  #                  All rights reserved                #
                  #                        -***-                        #
                  #######################################################


                         Program Version 5.0.4 -  RELEASE  -


 With contributions from (in alphabetic order):
   Daniel Aravena         : Magnetic Suceptibility
   Michael Atanasov       : Ab Initio Ligand Field Theory (pilot matlab implementation)
   Alexander A. Auer      : GIAO ZORA, VPT2 properties, NMR spectrum
   Ute Becker             : Parallelization
   Giovanni Bistoni       : ED, misc. LED, open-shell LED, HFLD
   Martin Brehm           : Molecular dynamics
   Dmytro Bykov           : SCF Hessian
   Vijay G. Chilkuri      : MRCI spin determinant printing, contributions to CSF-ICE
   Dipayan Datta          : RHF DLPNO-CCSD density
   Achintya Kumar Dutta   : EOM-CC, STEOM-CC
   Dmitry Ganyushin       : Spin-Orbit,Spin-Spin,Magnetic field MRCI
   Miquel Garcia          : C-PCM and meta-GGA Hessian, CC/C-PCM, Gaussian charge scheme
   Yang Guo               : DLPNO-NEVPT2, F12-NEVPT2, CIM, IAO-localization
   Andreas Hansen         : Spin unrestricted coupled pair/coupled cluster methods
   Benjamin Helmich-Paris : MC-RPA, TRAH-SCF, COSX integrals
   Lee Huntington         : MR-EOM, pCC
   Robert Izsak           : Overlap fitted RIJCOSX, COSX-SCS-MP3, EOM
   Marcus Kettner         : VPT2
   Christian Kollmar      : KDIIS, OOCD, Brueckner-CCSD(T), CCSD density, CASPT2, CASPT2-K
   Simone Kossmann        : Meta GGA functionals, TD-DFT gradient, OOMP2, MP2 Hessian
   Martin Krupicka        : Initial AUTO-CI
   Lucas Lang             : DCDCAS
   Marvin Lechner         : AUTO-CI (C++ implementation), FIC-MRCC
   Dagmar Lenk            : GEPOL surface, SMD
   Dimitrios Liakos       : Extrapolation schemes; Compound Job, initial MDCI parallelization
   Dimitrios Manganas     : Further ROCIS development; embedding schemes
   Dimitrios Pantazis     : SARC Basis sets
   Anastasios Papadopoulos: AUTO-CI, single reference methods and gradients
   Taras Petrenko         : DFT Hessian,TD-DFT gradient, ASA, ECA, R-Raman, ABS, FL, XAS/XES, NRVS
   Peter Pinski           : DLPNO-MP2, DLPNO-MP2 Gradient
   Christoph Reimann      : Effective Core Potentials
   Marius Retegan         : Local ZFS, SOC
   Christoph Riplinger    : Optimizer, TS searches, QM/MM, DLPNO-CCSD(T), (RO)-DLPNO pert. Triples
   Tobias Risthaus        : Range-separated hybrids, TD-DFT gradient, RPA, STAB
   Michael Roemelt        : Original ROCIS implementation
   Masaaki Saitow         : Open-shell DLPNO-CCSD energy and density
   Barbara Sandhoefer     : DKH picture change effects
   Avijit Sen             : IP-ROCIS
   Kantharuban Sivalingam : CASSCF convergence, NEVPT2, FIC-MRCI
   Bernardo de Souza      : ESD, SOC TD-DFT
   Georgi Stoychev        : AutoAux, RI-MP2 NMR, DLPNO-MP2 response
   Willem Van den Heuvel  : Paramagnetic NMR
   Boris Wezisla          : Elementary symmetry handling
   Frank Wennmohs         : Technical directorship


 We gratefully acknowledge several colleagues who have allowed us to
 interface, adapt or use parts of their codes:
   Stefan Grimme, W. Hujo, H. Kruse, P. Pracht,  : VdW corrections, initial TS optimization,
                  C. Bannwarth, S. Ehlert          DFT functionals, gCP, sTDA/sTD-DF
   Ed Valeev, F. Pavosevic, A. Kumar             : LibInt (2-el integral package), F12 methods
   Garnet Chan, S. Sharma, J. Yang, R. Olivares  : DMRG
   Ulf Ekstrom                                   : XCFun DFT Library
   Mihaly Kallay                                 : mrcc  (arbitrary order and MRCC methods)
   Jiri Pittner, Ondrej Demel                    : Mk-CCSD
   Frank Weinhold                                : gennbo (NPA and NBO analysis)
   Christopher J. Cramer and Donald G. Truhlar   : smd solvation model
   Lars Goerigk                                  : TD-DFT with DH, B97 family of functionals
   V. Asgeirsson, H. Jonsson                     : NEB implementation
   FAccTs GmbH                                   : IRC, NEB, NEB-TS, DLPNO-Multilevel, CI-OPT
                                                   MM, QMMM, 2- and 3-layer-ONIOM, Crystal-QMMM,
                                                   LR-CPCM, SF, NACMEs, symmetry and pop. for TD-DFT,
                                                   nearIR, NL-DFT gradient (VV10), updates on ESD,
                                                   ML-optimized integration grids
   S Lehtola, MJT Oliveira, MAL Marques          : LibXC Library
   Liviu Ungur et al                             : ANISO software


 Your calculation uses the libint2 library for the computation of 2-el integrals
 For citations please refer to: http://libint.valeyev.net

 Your ORCA version has been built with support for libXC version: 5.1.0
 For citations please refer to: https://tddft.org/programs/libxc/

 This ORCA versions uses:
   CBLAS   interface :  Fast vector & matrix operations
   LAPACKE interface :  Fast linear algebra routines
   SCALAPACK package :  Parallel linear algebra routines
   Shared memory     :  Shared parallel matrices
   BLAS/LAPACK       :  OpenBLAS 0.3.15  USE64BITINT DYNAMIC_ARCH NO_AFFINITY SkylakeX SINGLE_THREADED
        Core in use  :  SkylakeX
   Copyright (c) 2011-2014, The OpenBLAS Project


Your calculation utilizes the atom-pairwise dispersion correction
with the zero-damping scheme (D30)
Cite in your paper:
S.Grimme, J.Antony, S.Ehrlich and H.Krieg, J.Chem.Phys., 132, (2010), 154104 
   

XCFun DFT library Copyright 2009-2010 Ulf Ekstrom and contributors.
See http://admol.org/xcfun for more information.
This is free software; see the source code for copying conditions.
There is ABSOLUTELY NO WARRANTY; not even for MERCHANTABILITY or FITNESS FOR A PARTICULAR PURPOSE.
For details see the documentation.
Scientific users of this library should cite U. Ekstrom, L. Visscher, R. Bast, A. J. Thorvaldsen and K. Ruud;
J.Chem.Theor.Comp. 2010, DOI: 10.1021/ct100117s
XCFun Version 0.99 

================================================================================

----- Orbital basis set information -----
Your calculation utilizes the basis: def2-TZVPD
   F. Weigend and R. Ahlrichs, Phys. Chem. Chem. Phys. 7, 3297 (2005).
   D. Rappoport and F. Furche, J. Chem. Phys. 133 134105 (2010).

----- AuxJ basis set information -----
Your calculation utilizes the auxiliary basis: def2/J
   F. Weigend, Phys. Chem. Chem. Phys. 8, 1057 (2006).

================================================================================
                                        WARNINGS
                       Please study these warnings very carefully!
================================================================================


WARNING: Geometry Optimization
  ===> : Switching off AutoStart
         For restart on a previous wavefunction, please use MOREAD

INFO   : the flag for use of the SHARK integral package has been found!

================================================================================
                                       INPUT FILE
================================================================================
NAME = /beegfs/scratch/ispackman/PFAS_EPR_calcs/benchmark/JChemEd_CF3_radical/CH3_radical_97.0_degrees_IN-PROGRESS/CH3_radical_97.0_degrees.inp
|  1> ! UKS TightSCF wB97x-D3 def2-TZVPD xyzfile opt freq
|  2> 
|  3> # CH3 radical 97.0 degrees fixed
|  4> 
|  5> %maxcore 1000
|  6> %pal
|  7> nprocs 18
|  8> end
|  9> 
| 10> %geom Constraints
| 11>         { A * 0 * C }
| 12>     end
| 13> end
| 14> * xyz 0 2
| 15> C 0.00 0.00 0.00
| 16> H 0.9340051399 0.0000000000 -0.5422493878
| 17> H -0.4670025700 0.8088721785 -0.5422493878
| 18> H -0.4670025700 -0.8088721785 -0.5422493878
| 19> **                         ****END OF INPUT****
================================================================================

                       *****************************
                       * Geometry Optimization Run *
                       *****************************

Geometry optimization settings:
Update method            Update   .... BFGS
Choice of coordinates    CoordSys .... Z-matrix Internals
Initial Hessian          InHess   .... Almoef's Model

Convergence Tolerances:
Energy Change            TolE     ....  5.0000e-06 Eh
Max. Gradient            TolMAXG  ....  3.0000e-04 Eh/bohr
RMS Gradient             TolRMSG  ....  1.0000e-04 Eh/bohr
Max. Displacement        TolMAXD  ....  4.0000e-03 bohr
RMS Displacement         TolRMSD  ....  2.0000e-03 bohr
Strict Convergence                ....  False
------------------------------------------------------------------------------
                        ORCA OPTIMIZATION COORDINATE SETUP
------------------------------------------------------------------------------

The optimization will be done in new redundant internal coordinates
Making redundant internal coordinates   ...  (new redundants) done
Evaluating the initial hessian          ...  (Almloef) done
Evaluating the coordinates              ...  done
Calculating the B-matrix                .... done
Calculating the G-matrix                .... done
Diagonalizing the G-matrix              .... done
Imposing constraints:
 Iter   0:  RMS(Cart)=    0.0000000000 RMS(Int)=    0.0000000000
CONVERGED
Will constrain atom 0 coordinate 1 
Will constrain atom 0 coordinate 2 
Will constrain atom 1 coordinate 2 
The first mode is                       ....    1
The number of degrees of freedom        ....    6
Storing new coordinates                 .... done

    -----------------------------------------------------------------
                    Redundant Internal Coordinates


    -----------------------------------------------------------------
         Definition                    Initial Value    Approx d2E/dq
    -----------------------------------------------------------------
      1. B(H   1,C   0)                  1.0800         0.373575   
      2. B(H   2,C   0)                  1.0800         0.373575   
      3. B(H   3,C   0)                  1.0800         0.373575   
      4. A(H   2,C   0,H   3)           97.0000         0.294224 C 
      5. A(H   1,C   0,H   2)           97.0000         0.294224 C 
      6. A(H   1,C   0,H   3)           97.0000         0.294224 C 
      7. I(H   1,H   3,H   2,C   0)     79.4018         0.002523   
    -----------------------------------------------------------------

Number of atoms                         .... 4
Number of degrees of freedom            .... 7

         *************************************************************
         *                GEOMETRY OPTIMIZATION CYCLE   1            *
         *************************************************************
---------------------------------
CARTESIAN COORDINATES (ANGSTROEM)
---------------------------------
  C      0.000000    0.000000    0.000000
  H      0.934005    0.000000   -0.542249
  H     -0.467003    0.808872   -0.542249
  H     -0.467003   -0.808872   -0.542249

----------------------------
CARTESIAN COORDINATES (A.U.)
----------------------------
  NO LB      ZA    FRAG     MASS         X           Y           Z
   0 C     6.0000    0    12.011    0.000000    0.000000    0.000000
   1 H     1.0000    0     1.008    1.765014    0.000000   -1.024703
   2 H     1.0000    0     1.008   -0.882507    1.528547   -1.024703
   3 H     1.0000    0     1.008   -0.882507   -1.528547   -1.024703

--------------------------------
INTERNAL COORDINATES (ANGSTROEM)
--------------------------------
 C      0   0   0     0.000000000000     0.00000000     0.00000000
 H      1   0   0     1.079999999967     0.00000000     0.00000000
 H      1   2   0     1.080000000050    97.00000000     0.00000000
 H      1   2   3     1.080000000050    97.00000000    97.97741247

---------------------------
INTERNAL COORDINATES (A.U.)
---------------------------
 C      0   0   0     0.000000000000     0.00000000     0.00000000
 H      1   0   0     2.040904224573     0.00000000     0.00000000
 H      1   2   0     2.040904224729    97.00000000     0.00000000
 H      1   2   3     2.040904224729    97.00000000    97.97741247

---------------------
BASIS SET INFORMATION
---------------------
There are 2 groups of distinct atoms

 Group   1 Type C   : 12s6p3d1f contracted to 6s3p3d1f pattern {621111/411/111/1}
 Group   2 Type H   : 5s2p contracted to 3s2p pattern {311/11}

Atom   0C    basis set group =>   1
Atom   1H    basis set group =>   2
Atom   2H    basis set group =>   2
Atom   3H    basis set group =>   2
---------------------------------
AUXILIARY/J BASIS SET INFORMATION
---------------------------------
There are 2 groups of distinct atoms

 Group   1 Type C   : 12s5p4d2f1g contracted to 6s4p3d1f1g pattern {711111/2111/211/2/1}
 Group   2 Type H   : 5s2p1d contracted to 3s1p1d pattern {311/2/1}

Atom   0C    basis set group =>   1
Atom   1H    basis set group =>   2
Atom   2H    basis set group =>   2
Atom   3H    basis set group =>   2


           ************************************************************
           *        Program running with 18 parallel MPI-processes    *
           *              working on a common directory               *
           ************************************************************
------------------------------------------------------------------------------
                           ORCA GTO INTEGRAL CALCULATION
                           -- RI-GTO INTEGRALS CHOSEN --
------------------------------------------------------------------------------
------------------------------------------------------------------------------
                   ___                                                        
                  /   \      - P O W E R E D   B Y -                         
                 /     \                                                     
                 |  |  |   _    _      __       _____    __    __             
                 |  |  |  | |  | |    /  \     |  _  \  |  |  /  |          
                  \  \/   | |  | |   /    \    | | | |  |  | /  /          
                 / \  \   | |__| |  /  /\  \   | |_| |  |  |/  /          
                |  |  |   |  __  | /  /__\  \  |    /   |      \           
                |  |  |   | |  | | |   __   |  |    \   |  |\   \          
                \     /   | |  | | |  |  |  |  | |\  \  |  | \   \       
                 \___/    |_|  |_| |__|  |__|  |_| \__\ |__|  \__/        
                                                                              
                      - O R C A' S   B I G   F R I E N D -                    
                                      &                                       
                       - I N T E G R A L  F E E D E R -                       
                                                                              
 v1 FN, 2020, v2 2021                                                         
------------------------------------------------------------------------------


Reading SHARK input file /beegfs/scratch/ispackman/PFAS_EPR_calcs/benchmark/JChemEd_CF3_radical/CH3_radical_97.0_degrees_IN-PROGRESS/CH3_radical_97.0_degrees.SHARKINP.tmp ... ok
----------------------
SHARK INTEGRAL PACKAGE
----------------------

Number of atoms                             ...      4
Number of basis functions                   ...     64
Number of shells                            ...     28
Maximum angular momentum                    ...      3
Integral batch strategy                     ... SHARK/LIBINT Hybrid
RI-J (if used) integral strategy            ... SPLIT-RIJ (Revised 2003 algorithm where possible)
Printlevel                                  ...      1
Contraction scheme used                     ... SEGMENTED contraction
Coulomb Range Separation                    ... NOT USED
Exchange Range Separation                   ... Long Range
   Mu parameter                             ...  0.250000
   Scaling (regular/separated)              ...  0.195728  0.804272
Finite Nucleus Model                        ... NOT USED
Auxiliary Coulomb fitting basis             ... AVAILABLE
   # of basis functions in Aux-J            ...     82
   # of shells in Aux-J                     ...     30
   Maximum angular momentum in Aux-J        ...      4
Auxiliary J/K fitting basis                 ... NOT available
Auxiliary Correlation fitting basis         ... NOT available
Auxiliary 'external' fitting basis          ... NOT available
Integral threshold                          ...     2.500000e-11
Primitive cut-off                           ...     2.500000e-12
Primitive pair pre-selection threshold      ...     2.500000e-12

Calculating pre-screening integrals         ... done (  0.0 sec) Dimension = 28
Organizing shell pair data                  ... done (  0.0 sec)
Shell pair information
Total number of shell pairs                 ...       406
Shell pairs after pre-screening             ...       406
Total number of primitive shell pairs       ...       977
Primitive shell pairs kept                  ...       947
          la=0 lb=0:    120 shell pairs
          la=1 lb=0:    135 shell pairs
          la=1 lb=1:     45 shell pairs
          la=2 lb=0:     45 shell pairs
          la=2 lb=1:     27 shell pairs
          la=2 lb=2:      6 shell pairs
          la=3 lb=0:     15 shell pairs
          la=3 lb=1:      9 shell pairs
          la=3 lb=2:      3 shell pairs
          la=3 lb=3:      1 shell pairs

Calculating one electron integrals          ... done (  0.0 sec)
Calculating RI/J V-Matrix + Cholesky decomp.... done (  0.0 sec)
Calculating Nuclear repulsion               ... done (  0.0 sec) ENN=      9.800944299836 Eh

SHARK setup successfully completed in   0.3 seconds

Maximum memory used throughout the entire GTOINT-calculation: 14.0 MB


           ************************************************************
           *        Program running with 18 parallel MPI-processes    *
           *              working on a common directory               *
           ************************************************************
-------------------------------------------------------------------------------
                                 ORCA SCF
-------------------------------------------------------------------------------

------------
SCF SETTINGS
------------
Hamiltonian:
 Density Functional     Method          .... DFT(GTOs)
 Exchange Functional    Exchange        .... WB97X-D3
 Correlation Functional Correlation     .... WB97X-D3
 Gradients option       PostSCFGGA      .... off
 Hybrid DFT is turned on
   Fraction HF Exchange ScalHFX         ....  0.195728
   Scaling of DF-GGA-X  ScalDFX         ....  0.000000
   Scaling of DF-GGA-C  ScalDFC         ....  1.000000
   Scaling of DF-LDA-C  ScalLDAC        ....  1.000000
   Perturbative correction              ....  0.000000
   Density functional embedding theory  .... OFF
 Long-range corrected/Screened/Range-Separated Hybrid DFT is turned on
   Amount of maximum screened exact exchange              ....  0.804272
   Range separation parameter mu (erf(mu*r12)/r12)        ....  0.250000
 RI-approximation to the Coulomb term is turned on
   Number of AuxJ basis functions       .... 82
   RIJ-COSX (HFX calculated with COS-X)).... on


General Settings:
 Integral files         IntName         .... /beegfs/scratch/ispackman/PFAS_EPR_calcs/benchmark/JChemEd_CF3_radical/CH3_radical_97.0_degrees_IN-PROGRESS/CH3_radical_97.0_degrees
 Hartree-Fock type      HFTyp           .... UHF
 Total Charge           Charge          ....    0
 Multiplicity           Mult            ....    2
 Number of Electrons    NEL             ....    9
 Basis Dimension        Dim             ....   64
 Nuclear Repulsion      ENuc            ....      9.8009442998 Eh

Convergence Acceleration:
 DIIS                   CNVDIIS         .... on
   Start iteration      DIISMaxIt       ....    12
   Startup error        DIISStart       ....  0.200000
   # of expansion vecs  DIISMaxEq       ....     5
   Bias factor          DIISBfac        ....   1.050
   Max. coefficient     DIISMaxC        ....  10.000
 Trust-Rad. Augm. Hess. CNVTRAH         .... auto
   Auto Start mean grad. ratio tolernc. ....  1.125000
   Auto Start start iteration           ....    20
   Auto Start num. interpolation iter.  ....    10
   Max. Number of Micro iterations      ....    16
   Max. Number of Macro iterations      .... Maxiter - #DIIS iter
   Number of Davidson start vectors     ....     2
   Converg. threshold I  (grad. norm)   ....   1.000e-05
   Converg. threshold II (energy diff.) ....   1.000e-08
   Grad. Scal. Fac. for Micro threshold ....   0.100
   Minimum threshold for Micro iter.    ....   0.010
   NR start threshold (gradient norm)   ....   0.001
   Initial trust radius                 ....   0.400
   Minimum AH scaling param. (alpha)    ....   1.000
   Maximum AH scaling param. (alpha)    .... 1000.000
   Orbital update algorithm             .... Taylor
   White noise on init. David. guess    .... on
   Maximum white noise                  ....   0.010
   Quad. conv. algorithm                .... NR
 SOSCF                  CNVSOSCF        .... off
 Level Shifting         CNVShift        .... on
   Level shift para.    LevelShift      ....    0.2500
   Turn off err/grad.   ShiftErr        ....    0.0010
 Zerner damping         CNVZerner       .... off
 Static damping         CNVDamp         .... on
   Fraction old density DampFac         ....    0.7000
   Max. Damping (<1)    DampMax         ....    0.9800
   Min. Damping (>=0)   DampMin         ....    0.0000
   Turn off err/grad.   DampErr         ....    0.1000
 Fernandez-Rico         CNVRico         .... off

SCF Procedure:
 Maximum # iterations   MaxIter         ....   125
 SCF integral mode      SCFMode         .... Direct
   Integral package                     .... SHARK and LIBINT hybrid scheme
 Reset frequency        DirectResetFreq ....    20
 Integral Threshold     Thresh          ....  2.500e-11 Eh
 Primitive CutOff       TCut            ....  2.500e-12 Eh

Convergence Tolerance:
 Convergence Check Mode ConvCheckMode   .... Total+1el-Energy
 Convergence forced     ConvForced      .... 0
 Energy Change          TolE            ....  1.000e-08 Eh
 1-El. energy change                    ....  1.000e-05 Eh
 DIIS Error             TolErr          ....  5.000e-07


Diagonalization of the overlap matrix:
Smallest eigenvalue                        ... 3.576e-05
Time for diagonalization                   ...    0.002 sec
Threshold for overlap eigenvalues          ... 1.000e-08
Number of eigenvalues below threshold      ... 0
Time for construction of square roots      ...    0.018 sec
Total time needed                          ...    0.022 sec

Time for model grid setup =    0.038 sec

------------------------------
INITIAL GUESS: MODEL POTENTIAL
------------------------------
Loading Hartree-Fock densities                     ... done
Calculating cut-offs                               ... done
Initializing the effective Hamiltonian             ... done
Setting up the integral package (SHARK)            ... done
Starting the Coulomb interaction                   ... done (   0.0 sec)
Reading the grid                                   ... done
Mapping shells                                     ... done
Starting the XC term evaluation                    ... done (   0.0 sec)
  promolecular density results
     # of electrons  =      8.997957305
     EX              =     -5.938035683
     EC              =     -0.260705036
     EX+EC           =     -6.198740719
Transforming the Hamiltonian                       ... done (   0.0 sec)
Diagonalizing the Hamiltonian                      ... done (   0.0 sec)
Back transforming the eigenvectors                 ... done (   0.0 sec)
Now organizing SCF variables                       ... done
                      ------------------
                      INITIAL GUESS DONE (   0.1 sec)
                      ------------------
-------------------
DFT GRID GENERATION
-------------------

General Integration Accuracy     IntAcc      ... 4.388
Radial Grid Type                 RadialGrid  ... OptM3 with GC (2021)
Angular Grid (max. ang.)         AngularGrid ... 4 (Lebedev-302)
Angular grid pruning method      GridPruning ... 4 (adaptive)
Weight generation scheme         WeightScheme... Becke
Basis function cutoff            BFCut       ... 1.0000e-11
Integration weight cutoff        WCut        ... 1.0000e-14
Angular grids for H and He will be reduced by one unit
Partially contracted basis set               ... off
Rotationally invariant grid construction     ... off

Total number of grid points                  ...    17033
Total number of batches                      ...      269
Average number of points per batch           ...       63
Average number of grid points per atom       ...     4258
Time for grid setup =    0.098 sec

--------------------
COSX GRID GENERATION
--------------------

GRIDX 1
-------
General Integration Accuracy     IntAcc      ... 3.816
Radial Grid Type                 RadialGrid  ... OptM3 with GC (2021)
Angular Grid (max. ang.)         AngularGrid ... 1 (Lebedev-50)
Angular grid pruning method      GridPruning ... 4 (adaptive)
Weight generation scheme         WeightScheme... Becke
Basis function cutoff            BFCut       ... 1.0000e-11
Integration weight cutoff        WCut        ... 1.0000e-14
Angular grids for H and He will be reduced by one unit
Partially contracted basis set               ... on
Rotationally invariant grid construction     ... off

Total number of grid points                  ...     2144
Total number of batches                      ...       36
Average number of points per batch           ...       59
Average number of grid points per atom       ...      536
UseSFitting                                  ... on

GRIDX 2
-------
General Integration Accuracy     IntAcc      ... 4.020
Radial Grid Type                 RadialGrid  ... OptM3 with GC (2021)
Angular Grid (max. ang.)         AngularGrid ... 2 (Lebedev-110)
Angular grid pruning method      GridPruning ... 4 (adaptive)
Weight generation scheme         WeightScheme... Becke
Basis function cutoff            BFCut       ... 1.0000e-11
Integration weight cutoff        WCut        ... 1.0000e-14
Angular grids for H and He will be reduced by one unit
Partially contracted basis set               ... on
Rotationally invariant grid construction     ... off

Total number of grid points                  ...     5055
Total number of batches                      ...       82
Average number of points per batch           ...       61
Average number of grid points per atom       ...     1264
UseSFitting                                  ... on

GRIDX 3
-------
General Integration Accuracy     IntAcc      ... 4.338
Radial Grid Type                 RadialGrid  ... OptM3 with GC (2021)
Angular Grid (max. ang.)         AngularGrid ... 3 (Lebedev-194)
Angular grid pruning method      GridPruning ... 4 (adaptive)
Weight generation scheme         WeightScheme... Becke
Basis function cutoff            BFCut       ... 1.0000e-11
Integration weight cutoff        WCut        ... 1.0000e-14
Angular grids for H and He will be reduced by one unit
Partially contracted basis set               ... on
Rotationally invariant grid construction     ... off

Total number of grid points                  ...    11714
Total number of batches                      ...      184
Average number of points per batch           ...       63
Average number of grid points per atom       ...     2928
UseSFitting                                  ... on

Time for X-Grid setup             =    0.269 sec

--------------
SCF ITERATIONS
--------------
ITER       Energy         Delta-E        Max-DP      RMS-DP      [F,P]     Damp
               ***  Starting incremental Fock matrix formation  ***
  0    -39.7628196603   0.000000000000 0.07064976  0.00130878  0.0752882 0.7000
  1    -39.7765601707  -0.013740510487 0.06356243  0.00113896  0.0484665 0.7000
                               ***Turning on DIIS***
  2    -39.7843972935  -0.007837122747 0.13125398  0.00243691  0.0281402 0.0000
  3    -39.7981597441  -0.013762450586 0.04789163  0.00085317  0.0191266 0.0000
  4    -39.7996594813  -0.001499737191 0.01501874  0.00025519  0.0032248 0.0000
  5    -39.7997267686  -0.000067287308 0.01347264  0.00021873  0.0016746 0.0000
  6    -39.7997501844  -0.000023415852 0.01448458  0.00022559  0.0006327 0.0000
               *** Restarting incremental Fock matrix formation ***
                                   *** Resetting DIIS ***
  7    -39.7997565192  -0.000006334818 0.00120951  0.00001887  0.0000856 0.0000
  8    -39.7997566887  -0.000000169429 0.00081795  0.00001278  0.0000444 0.0000
  9    -39.7997567430  -0.000000054359 0.00002209  0.00000083  0.0000186 0.0000
 10    -39.7997567462  -0.000000003127 0.00001108  0.00000035  0.0000071 0.0000
                 **** Energy Check signals convergence ****

               *****************************************************
               *                     SUCCESS                       *
               *           SCF CONVERGED AFTER  11 CYCLES          *
               *****************************************************

Old exchange energy                            =     -2.172984113 Eh
New exchange energy                            =     -2.172987166 Eh
Exchange energy change after final integration =     -0.000003053 Eh
Total energy after final integration           =    -39.799759800 Eh
Final COS-X integration done in                =     0.112 sec

----------------
TOTAL SCF ENERGY
----------------

Total Energy       :          -39.79975980 Eh           -1083.00652 eV

Components:
Nuclear Repulsion  :            9.80094430 Eh             266.69725 eV
Electronic Energy  :          -49.60070410 Eh           -1349.70378 eV
One Electron Energy:          -71.82373835 Eh           -1954.42328 eV
Two Electron Energy:           22.22303425 Eh             604.71951 eV
Max COSX asymmetry :            0.00000009 Eh               0.00000 eV

Virial components:
Potential Energy   :          -79.46884757 Eh           -2162.45728 eV
Kinetic Energy     :           39.66908777 Eh            1079.45076 eV
Virial Ratio       :            2.00329405


DFT components:
N(Alpha)           :        4.999997392770 electrons
N(Beta)            :        4.000000235168 electrons
N(Total)           :        8.999997627938 electrons
E(XC)              :       -4.316701596723 Eh       
DFET-embed. en.    :        0.000000000000 Eh       

---------------
SCF CONVERGENCE
---------------

  Last Energy change         ...   -2.9218e-10  Tolerance :   1.0000e-08
  Last MAX-Density change    ...    0.0000e+00  Tolerance :   1.0000e-07
  Last RMS-Density change    ...    0.0000e+00  Tolerance :   5.0000e-09
  Last DIIS Error            ...    1.3175e-06  Tolerance :   5.0000e-07

             **** THE GBW FILE WAS UPDATED (/beegfs/scratch/ispackman/PFAS_EPR_calcs/benchmark/JChemEd_CF3_radical/CH3_radical_97.0_degrees_IN-PROGRESS/CH3_radical_97.0_degrees.gbw) ****
             **** DENSITY /beegfs/scratch/ispackman/PFAS_EPR_calcs/benchmark/JChemEd_CF3_radical/CH3_radical_97.0_degrees_IN-PROGRESS/CH3_radical_97.0_degrees.scfp WAS UPDATED ****
             **** ENERGY FILE WAS UPDATED (/beegfs/scratch/ispackman/PFAS_EPR_calcs/benchmark/JChemEd_CF3_radical/CH3_radical_97.0_degrees_IN-PROGRESS/CH3_radical_97.0_degrees.en.tmp) ****
----------------------
UHF SPIN CONTAMINATION
----------------------

Warning: in a DFT calculation there is little theoretical justification to 
         calculate <S**2> as in Hartree-Fock theory. We will do it anyways
         but you should keep in mind that the values have only limited relevance

Expectation value of <S**2>     :     0.753147
Ideal value S*(S+1) for S=0.5   :     0.750000
Deviation                       :     0.003147

             **** THE GBW FILE WAS UPDATED (/beegfs/scratch/ispackman/PFAS_EPR_calcs/benchmark/JChemEd_CF3_radical/CH3_radical_97.0_degrees_IN-PROGRESS/CH3_radical_97.0_degrees.gbw) ****
             **** DENSITY /beegfs/scratch/ispackman/PFAS_EPR_calcs/benchmark/JChemEd_CF3_radical/CH3_radical_97.0_degrees_IN-PROGRESS/CH3_radical_97.0_degrees.scfp WAS UPDATED ****
----------------
ORBITAL ENERGIES
----------------
                 SPIN UP ORBITALS
  NO   OCC          E(Eh)            E(eV) 
   0   1.0000     -10.296434      -280.1802 
   1   1.0000      -0.824247       -22.4289 
   2   1.0000      -0.489860       -13.3298 
   3   1.0000      -0.489841       -13.3293 
   4   1.0000      -0.395171       -10.7532 
   5   0.0000       0.074585         2.0296 
   6   0.0000       0.161558         4.3962 
   7   0.0000       0.161564         4.3964 
   8   0.0000       0.170672         4.6442 
   9   0.0000       0.193735         5.2718 
  10   0.0000       0.193735         5.2718 
  11   0.0000       0.239055         6.5050 
  12   0.0000       0.253006         6.8847 
  13   0.0000       0.253013         6.8848 
  14   0.0000       0.315766         8.5924 
  15   0.0000       0.349775         9.5179 
  16   0.0000       0.349781         9.5180 
  17   0.0000       0.351608         9.5677 
  18   0.0000       0.381419        10.3789 
  19   0.0000       0.383044        10.4231 
  20   0.0000       0.383049        10.4233 
  21   0.0000       0.395207        10.7541 
  22   0.0000       0.395217        10.7544 
  23   0.0000       0.530343        14.4314 
  24   0.0000       0.562589        15.3088 
  25   0.0000       0.562598        15.3091 
  26   0.0000       0.664566        18.0838 
  27   0.0000       0.784532        21.3482 
  28   0.0000       0.787341        21.4246 
  29   0.0000       0.787349        21.4248 
  30   0.0000       0.867665        23.6104 
  31   0.0000       0.867680        23.6108 
  32   0.0000       0.959986        26.1225 
  33   0.0000       1.162471        31.6324 
  34   0.0000       1.162507        31.6334 
  35   0.0000       1.647698        44.8361 
  36   0.0000       1.745803        47.5057 
  37   0.0000       1.745842        47.5068 
  38   0.0000       1.792533        48.7773 
  39   0.0000       1.833403        49.8894 
  40   0.0000       1.940184        52.7951 
  41   0.0000       1.940222        52.7961 
  42   0.0000       2.196870        59.7799 
  43   0.0000       2.196917        59.7811 
  44   0.0000       2.205909        60.0258 
  45   0.0000       2.505581        68.1803 
  46   0.0000       2.647053        72.0300 
  47   0.0000       2.647162        72.0329 
  48   0.0000       2.727708        74.2247 
  49   0.0000       2.727778        74.2266 
  50   0.0000       2.780719        75.6672 
  51   0.0000       3.117572        84.8334 
  52   0.0000       3.154423        85.8362 
  53   0.0000       3.154523        85.8389 
  54   0.0000       3.259973        88.7084 
  55   0.0000       3.322171        90.4009 
  56   0.0000       3.343332        90.9767 
  57   0.0000       3.343381        90.9780 
  58   0.0000       3.728795       101.4657 
  59   0.0000       3.728839       101.4669 
  60   0.0000       4.292624       116.8082 
  61   0.0000       4.481472       121.9470 
  62   0.0000       4.481558       121.9494 
  63   0.0000      22.178271       603.5014 

                 SPIN DOWN ORBITALS
  NO   OCC          E(Eh)            E(eV) 
   0   1.0000     -10.284603      -279.8583 
   1   1.0000      -0.789866       -21.4934 
   2   1.0000      -0.474016       -12.8986 
   3   1.0000      -0.473999       -12.8982 
   4   0.0000      -0.040591        -1.1045 
   5   0.0000       0.082752         2.2518 
   6   0.0000       0.166688         4.5358 
   7   0.0000       0.166690         4.5359 
   8   0.0000       0.201265         5.4767 
   9   0.0000       0.201268         5.4768 
  10   0.0000       0.205879         5.6023 
  11   0.0000       0.253939         6.9100 
  12   0.0000       0.256598         6.9824 
  13   0.0000       0.256600         6.9824 
  14   0.0000       0.323647         8.8069 
  15   0.0000       0.366442         9.9714 
  16   0.0000       0.366444         9.9714 
  17   0.0000       0.368314        10.0223 
  18   0.0000       0.381217        10.3734 
  19   0.0000       0.390052        10.6139 
  20   0.0000       0.390055        10.6139 
  21   0.0000       0.403513        10.9801 
  22   0.0000       0.403515        10.9802 
  23   0.0000       0.566931        15.4270 
  24   0.0000       0.566932        15.4270 
  25   0.0000       0.568368        15.4661 
  26   0.0000       0.672923        18.3112 
  27   0.0000       0.791828        21.5467 
  28   0.0000       0.800186        21.7742 
  29   0.0000       0.800198        21.7745 
  30   0.0000       0.887080        24.1387 
  31   0.0000       0.887110        24.1395 
  32   0.0000       0.977190        26.5907 
  33   0.0000       1.173719        31.9385 
  34   0.0000       1.173735        31.9390 
  35   0.0000       1.718246        46.7559 
  36   0.0000       1.755720        47.7756 
  37   0.0000       1.755738        47.7761 
  38   0.0000       1.793913        48.8148 
  39   0.0000       1.847228        50.2656 
  40   0.0000       1.955467        53.2109 
  41   0.0000       1.955481        53.2113 
  42   0.0000       2.207231        60.0618 
  43   0.0000       2.207231        60.0618 
  44   0.0000       2.209446        60.1221 
  45   0.0000       2.520400        68.5836 
  46   0.0000       2.654351        72.2286 
  47   0.0000       2.654370        72.2291 
  48   0.0000       2.753770        74.9339 
  49   0.0000       2.753799        74.9347 
  50   0.0000       2.803343        76.2828 
  51   0.0000       3.166712        86.1706 
  52   0.0000       3.201177        87.1085 
  53   0.0000       3.201215        87.1095 
  54   0.0000       3.282382        89.3182 
  55   0.0000       3.345788        91.0435 
  56   0.0000       3.380859        91.9978 
  57   0.0000       3.380871        91.9982 
  58   0.0000       3.773567       102.6840 
  59   0.0000       3.773593       102.6847 
  60   0.0000       4.315827       117.4396 
  61   0.0000       4.504200       122.5655 
  62   0.0000       4.504207       122.5657 
  63   0.0000      22.198320       604.0470 

                    ********************************
                    * MULLIKEN POPULATION ANALYSIS *
                    ********************************

--------------------------------------------
MULLIKEN ATOMIC CHARGES AND SPIN POPULATIONS
--------------------------------------------
   0 C :   -0.692322    0.888831
   1 H :    0.230504    0.037102
   2 H :    0.230908    0.037034
   3 H :    0.230911    0.037033
Sum of atomic charges         :    0.0000000
Sum of atomic spin populations:    1.0000000

-----------------------------------------------------
MULLIKEN REDUCED ORBITAL CHARGES AND SPIN POPULATIONS
-----------------------------------------------------
CHARGE
  0 C s       :     3.308531  s :     3.308531
      pz      :     0.965763  p :     3.328038
      px      :     1.181124
      py      :     1.181151
      dz2     :     0.000095  d :     0.055203
      dxz     :     0.020107
      dyz     :     0.020111
      dx2y2   :     0.007438
      dxy     :     0.007452
      f0      :     0.000271  f :     0.000551
      f+1     :     0.000040
      f-1     :     0.000040
      f+2     :    -0.000052
      f-2     :    -0.000050
      f+3     :     0.000301
      f-3     :     0.000000
  1 H s       :     0.727887  s :     0.727887
      pz      :     0.022465  p :     0.041609
      px      :     0.013301
      py      :     0.005842
  2 H s       :     0.727602  s :     0.727602
      pz      :     0.022423  p :     0.041491
      px      :     0.007676
      py      :     0.011392
  3 H s       :     0.727600  s :     0.727600
      pz      :     0.022423  p :     0.041489
      px      :     0.007676
      py      :     0.011391

SPIN
  0 C s       :     0.033409  s :     0.033409
      pz      :     0.857998  p :     0.867378
      px      :     0.004645
      py      :     0.004735
      dz2     :    -0.000364  d :    -0.011519
      dxz     :    -0.005135
      dyz     :    -0.005132
      dx2y2   :    -0.000447
      dxy     :    -0.000442
      f0      :    -0.000471  f :    -0.000437
      f+1     :     0.000083
      f-1     :     0.000083
      f+2     :    -0.000014
      f-2     :    -0.000013
      f+3     :    -0.000104
      f-3     :     0.000000
  1 H s       :     0.015845  s :     0.015845
      pz      :     0.019150  p :     0.021257
      px      :    -0.000685
      py      :     0.002792
  2 H s       :     0.015822  s :     0.015822
      pz      :     0.019111  p :     0.021211
      px      :     0.001915
      py      :     0.000185
  3 H s       :     0.015822  s :     0.015822
      pz      :     0.019111  p :     0.021211
      px      :     0.001915
      py      :     0.000185


                     *******************************
                     * LOEWDIN POPULATION ANALYSIS *
                     *******************************

-------------------------------------------
LOEWDIN ATOMIC CHARGES AND SPIN POPULATIONS
-------------------------------------------
   0 C :    0.054464    0.837134
   1 H :   -0.018177    0.054291
   2 H :   -0.018144    0.054287
   3 H :   -0.018144    0.054287

----------------------------------------------------
LOEWDIN REDUCED ORBITAL CHARGES AND SPIN POPULATIONS
----------------------------------------------------
CHARGE
  0 C s       :     2.902944  s :     2.902944
      pz      :     0.764160  p :     2.908858
      px      :     1.072347
      py      :     1.072351
      dz2     :     0.002680  d :     0.121981
      dxz     :     0.033149
      dyz     :     0.033150
      dx2y2   :     0.026499
      dxy     :     0.026503
      f0      :     0.001428  f :     0.011753
      f+1     :     0.000235
      f-1     :     0.000235
      f+2     :     0.003888
      f-2     :     0.003890
      f+3     :     0.002077
      f-3     :     0.000000
  1 H s       :     0.745792  s :     0.745792
      pz      :     0.072070  p :     0.272385
      px      :     0.121068
      py      :     0.079247
  2 H s       :     0.745775  s :     0.745775
      pz      :     0.072066  p :     0.272369
      px      :     0.089694
      py      :     0.110608
  3 H s       :     0.745775  s :     0.745775
      pz      :     0.072066  p :     0.272369
      px      :     0.089694
      py      :     0.110608

SPIN
  0 C s       :     0.127460  s :     0.127460
      pz      :     0.677876  p :     0.720869
      px      :     0.021502
      py      :     0.021491
      dz2     :     0.000996  d :    -0.011091
      dxz     :    -0.004532
      dyz     :    -0.004536
      dx2y2   :    -0.001512
      dxy     :    -0.001506
      f0      :    -0.000177  f :    -0.000104
      f+1     :     0.000102
      f-1     :     0.000102
      f+2     :    -0.000217
      f-2     :    -0.000215
      f+3     :     0.000300
      f-3     :     0.000000
  1 H s       :     0.000098  s :     0.000098
      pz      :     0.052348  p :     0.054193
      px      :     0.002907
      py      :    -0.001062
  2 H s       :     0.000093  s :     0.000093
      pz      :     0.052345  p :     0.054194
      px      :    -0.000073
      py      :     0.001922
  3 H s       :     0.000093  s :     0.000093
      pz      :     0.052345  p :     0.054194
      px      :    -0.000073
      py      :     0.001922


                      *****************************
                      * MAYER POPULATION ANALYSIS *
                      *****************************

  NA   - Mulliken gross atomic population
  ZA   - Total nuclear charge
  QA   - Mulliken gross atomic charge
  VA   - Mayer's total valence
  BVA  - Mayer's bonded valence
  FA   - Mayer's free valence

  ATOM       NA         ZA         QA         VA         BVA        FA
  0 C      6.6923     6.0000    -0.6923     3.8368     3.0693     0.7675
  1 H      0.7695     1.0000     0.2305     1.0043     1.0028     0.0014
  2 H      0.7691     1.0000     0.2309     1.0038     1.0023     0.0014
  3 H      0.7691     1.0000     0.2309     1.0038     1.0023     0.0014

  Mayer bond orders larger than 0.100000
B(  0-C ,  1-H ) :   1.0234 B(  0-C ,  2-H ) :   1.0230 B(  0-C ,  3-H ) :   1.0230 


-------
TIMINGS
-------

Total SCF time: 0 days 0 hours 0 min 7 sec 

Total time                  ....       7.530 sec
Sum of individual times     ....       6.914 sec  ( 91.8%)

Fock matrix formation       ....       5.826 sec  ( 77.4%)
  Split-RI-J                ....       0.805 sec  ( 13.8% of F)
  Chain of spheres X        ....       1.326 sec  ( 22.8% of F)
  XC integration            ....       1.246 sec  ( 21.4% of F)
    Basis function eval.    ....       0.052 sec  (  4.2% of XC)
    Density eval.           ....       0.050 sec  (  4.0% of XC)
    XC-Functional eval.     ....       0.053 sec  (  4.2% of XC)
    XC-Potential eval.      ....       0.072 sec  (  5.8% of XC)
Diagonalization             ....       0.159 sec  (  2.1%)
Density matrix formation    ....       0.009 sec  (  0.1%)
Population analysis         ....       0.119 sec  (  1.6%)
Initial guess               ....       0.089 sec  (  1.2%)
Orbital Transformation      ....       0.000 sec  (  0.0%)
Orbital Orthonormalization  ....       0.000 sec  (  0.0%)
DIIS solution               ....       0.308 sec  (  4.1%)
Grid generation             ....       0.404 sec  (  5.4%)

Maximum memory used throughout the entire SCF-calculation: 58.5 MB


-------------------------------------------------------------------------------
                          DFT DISPERSION CORRECTION                            
                                                                               
                              DFTD3 V3.1  Rev 1                                
                              USING zero damping                               
-------------------------------------------------------------------------------
The omegaB97X-D3 functional is recognized. Fit by Chai et al.
Active option DFTDOPT                   ...         3   

molecular C6(AA) [au] = 106.956494 


            DFT-D V3
 parameters
 s6 scaling factor         :     1.0000 
 rs6 scaling factor        :     1.2810 
 s8 scaling factor         :     1.0000 
 rs8 scaling factor        :     1.0940 
 Damping factor alpha6     :    14.0000 
 Damping factor alpha8     :    16.0000 
 ad hoc parameters k1-k3   :    16.0000     1.3333    -4.0000 

 Edisp/kcal,au: -0.003694672913  -0.000005887835 
 E6   /kcal   :  -0.000574122 
 E8   /kcal   :  -0.003120551 
 % E8         :  84.460811962 

-------------------------   ----------------
Dispersion correction           -0.000005888
-------------------------   ----------------


-------------------------   --------------------
FINAL SINGLE POINT ENERGY       -39.799765687613
-------------------------   --------------------



           ************************************************************
           *        Program running with 18 parallel MPI-processes    *
           *              working on a common directory               *
           ************************************************************
------------------------------------------------------------------------------
                         ORCA SCF GRADIENT CALCULATION
------------------------------------------------------------------------------

 ... reading COSX grid (gridx3)
Gradient of the Kohn-Sham DFT energy:
Kohn-Sham wavefunction type      ... UKS
Hartree-Fock exchange scaling    ...    0.196
Number of operators              ...    2
Number of atoms                  ...    4
Basis set dimensions             ...   64
Integral neglect threshold       ... 2.5e-11
Integral primitive cutoff        ... 2.5e-12
SHARK Integral package           ... ON

Nuc. rep. gradient       (SHARK) ... done (  0.0 sec)
HCore & Overlap gradient (SHARK) ... done (  0.0 sec)
RI-J gradient            (SHARK) ... done (  0.1 sec)
COSX-gradient                    ... done (  0.1 sec)
Exchange-correlation gradient    ... done
Dispersion correction            ... done

------------------
CARTESIAN GRADIENT
------------------

WARNING: THERE ARE 3 CONSTRAINED CARTESIAN COORDINATES
   1   C   :   -0.000086142   -0.000000021    0.073326767
   2   H   :   -0.029837113    0.000000026   -0.024458051
   3   H   :    0.014935302   -0.025784407   -0.024416519
   4   H   :    0.014935296    0.025784426   -0.024416541

Difference to translation invariance:
           :   -0.0000526576    0.0000000231    0.0000356552

Difference to rotation invariance:
           :    0.0000000788    0.0000389741    0.0000000191

Norm of the cartesian gradient     ...    0.0991635228
RMS gradient                       ...    0.0286260433
MAX gradient                       ...    0.0733267667

-------
TIMINGS
-------

Total SCF gradient time            ...        0.588 sec

One electron gradient       ....       0.006 sec  (  1.1%)
RI-J Coulomb gradient       ....       0.105 sec  ( 17.8%)
COSX gradient               ....       0.118 sec  ( 20.1%)
XC gradient                 ....       0.066 sec  ( 11.1%)

Maximum memory used throughout the entire SCFGRAD-calculation: 33.6 MB
------------------------------------------------------------------------------
                         ORCA GEOMETRY RELAXATION STEP
------------------------------------------------------------------------------

Reading the OPT-File                    .... done
Getting information on internals        .... done
Copying old internal coords+grads       .... done
Making the new internal coordinates     .... (new redundants).... done
Validating the new internal coordinates .... (new redundants).... done
Calculating the B-matrix                .... done
Calculating the G,G- and P matrices     .... done
Transforming gradient to internals      .... done
Projecting the internal gradient        .... done
Number of atoms                         ....   4
Number of internal coordinates          ....   7
Current Energy                          ....   -39.799765688 Eh
Current gradient norm                   ....     0.099163523 Eh/bohr
Maximum allowed component of the step   ....  0.300
Current trust radius                    ....  0.300
Evaluating the initial hessian          ....  (Almloef) done
Projecting the Hessian                  .... done
Forming the augmented Hessian           .... done
Diagonalizing the augmented Hessian     .... done
Last element of RFO vector              ....  0.998059031
Lowest eigenvalues of augmented Hessian:
 -0.001460112  0.373574723  0.373574723  0.375034835 1000.000000000
Length of the computed step             ....  0.062396071
The final length of the internal step   ....  0.062396071
Converting the step to cartesian space:
 Initial RMS(Int)=    0.0235834982
Transforming coordinates:
 Iter   0:  RMS(Cart)=    0.0162203252 RMS(Int)=    0.0235834982
 Iter   1:  RMS(Cart)=    0.0000000000 RMS(Int)=    0.0000000000
Imposing constraints:
 Iter   0:  RMS(Cart)=    0.0000000015 RMS(Int)=    0.0000000021
CONVERGED
done
Storing new coordinates                 .... done

                                .--------------------.
          ----------------------|Geometry convergence|-------------------------
          Item                value                   Tolerance       Converged
          ---------------------------------------------------------------------
          RMS gradient        0.0088446334            0.0001000000      NO
          MAX gradient        0.0135117475            0.0003000000      NO
          RMS step            0.0235834982            0.0020000000      NO
          MAX step            0.0360279799            0.0040000000      NO
          ........................................................
          Max(Bonds)      0.0191      Max(Angles)    0.00
          Max(Dihed)        0.00      Max(Improp)    0.00
          ---------------------------------------------------------------------

The optimization has not yet converged - more geometry cycles are needed


    ---------------------------------------------------------------------------
                         Redundant Internal Coordinates
                            (Angstroem and degrees)

        Definition                    Value    dE/dq     Step     New-Value
    ----------------------------------------------------------------------------
     1. B(H   1,C   0)                1.0800 -0.013508  0.0191    1.0991   
     2. B(H   2,C   0)                1.0800 -0.013512  0.0191    1.0991   
     3. B(H   3,C   0)                1.0800 -0.013512  0.0191    1.0991   
     4. A(H   2,C   0,H   3)           97.00 -0.051590    0.00     97.00 C 
     5. A(H   1,C   0,H   2)           97.00 -0.024077   -0.00     97.00 C 
     6. A(H   1,C   0,H   3)           97.00 -0.024077   -0.00     97.00 C 
     7. I(H   1,H   3,H   2,C   0)     79.40  0.042147    0.00     79.40   
    ----------------------------------------------------------------------------

         *************************************************************
         *                GEOMETRY OPTIMIZATION CYCLE   2            *
         *************************************************************
---------------------------------
CARTESIAN COORDINATES (ANGSTROEM)
---------------------------------
  C      0.000002    0.000000    0.007179
  H      0.950489    0.000000   -0.544642
  H     -0.475245    0.823151   -0.544643
  H     -0.475245   -0.823151   -0.544643

----------------------------
CARTESIAN COORDINATES (A.U.)
----------------------------
  NO LB      ZA    FRAG     MASS         X           Y           Z
   0 C     6.0000    0    12.011    0.000003    0.000000    0.013565
   1 H     1.0000    0     1.008    1.796164    0.000000   -1.029223
   2 H     1.0000    0     1.008   -0.898084    1.555530   -1.029225
   3 H     1.0000    0     1.008   -0.898084   -1.555530   -1.029225

--------------------------------
INTERNAL COORDINATES (ANGSTROEM)
--------------------------------
 C      0   0   0     0.000000000000     0.00000000     0.00000000
 H      1   0   0     1.099059490779     0.00000000     0.00000000
 H      1   2   0     1.099065178953    96.99999989     0.00000000
 H      1   2   3     1.099065185876    96.99999989    97.97741220

---------------------------
INTERNAL COORDINATES (A.U.)
---------------------------
 C      0   0   0     0.000000000000     0.00000000     0.00000000
 H      1   0   0     2.076921442459     0.00000000     0.00000000
 H      1   2   0     2.076932191550    96.99999989     0.00000000
 H      1   2   3     2.076932204632    96.99999989    97.97741220



           ************************************************************
           *        Program running with 18 parallel MPI-processes    *
           *              working on a common directory               *
           ************************************************************
------------------------------------------------------------------------------
                   ___                                                        
                  /   \      - P O W E R E D   B Y -                         
                 /     \                                                     
                 |  |  |   _    _      __       _____    __    __             
                 |  |  |  | |  | |    /  \     |  _  \  |  |  /  |          
                  \  \/   | |  | |   /    \    | | | |  |  | /  /          
                 / \  \   | |__| |  /  /\  \   | |_| |  |  |/  /          
                |  |  |   |  __  | /  /__\  \  |    /   |      \           
                |  |  |   | |  | | |   __   |  |    \   |  |\   \          
                \     /   | |  | | |  |  |  |  | |\  \  |  | \   \       
                 \___/    |_|  |_| |__|  |__|  |_| \__\ |__|  \__/        
                                                                              
                      - O R C A' S   B I G   F R I E N D -                    
                                      &                                       
                       - I N T E G R A L  F E E D E R -                       
                                                                              
 v1 FN, 2020, v2 2021                                                         
------------------------------------------------------------------------------


Reading SHARK input file /beegfs/scratch/ispackman/PFAS_EPR_calcs/benchmark/JChemEd_CF3_radical/CH3_radical_97.0_degrees_IN-PROGRESS/CH3_radical_97.0_degrees.SHARKINP.tmp ... ok
----------------------
SHARK INTEGRAL PACKAGE
----------------------

Number of atoms                             ...      4
Number of basis functions                   ...     64
Number of shells                            ...     28
Maximum angular momentum                    ...      3
Integral batch strategy                     ... SHARK/LIBINT Hybrid
RI-J (if used) integral strategy            ... SPLIT-RIJ (Revised 2003 algorithm where possible)
Printlevel                                  ...      1
Contraction scheme used                     ... SEGMENTED contraction
Coulomb Range Separation                    ... NOT USED
Exchange Range Separation                   ... Long Range
   Mu parameter                             ...  0.250000
   Scaling (regular/separated)              ...  0.195728  0.804272
Finite Nucleus Model                        ... NOT USED
Auxiliary Coulomb fitting basis             ... AVAILABLE
   # of basis functions in Aux-J            ...     82
   # of shells in Aux-J                     ...     30
   Maximum angular momentum in Aux-J        ...      4
Auxiliary J/K fitting basis                 ... NOT available
Auxiliary Correlation fitting basis         ... NOT available
Auxiliary 'external' fitting basis          ... NOT available
Integral threshold                          ...     2.500000e-11
Primitive cut-off                           ...     2.500000e-12
Primitive pair pre-selection threshold      ...     2.500000e-12

Calculating pre-screening integrals         ... done (  0.0 sec) Dimension = 28
Organizing shell pair data                  ... done (  0.0 sec)
Shell pair information
Total number of shell pairs                 ...       406
Shell pairs after pre-screening             ...       406
Total number of primitive shell pairs       ...       977
Primitive shell pairs kept                  ...       947
          la=0 lb=0:    120 shell pairs
          la=1 lb=0:    135 shell pairs
          la=1 lb=1:     45 shell pairs
          la=2 lb=0:     45 shell pairs
          la=2 lb=1:     27 shell pairs
          la=2 lb=2:      6 shell pairs
          la=3 lb=0:     15 shell pairs
          la=3 lb=1:      9 shell pairs
          la=3 lb=2:      3 shell pairs
          la=3 lb=3:      1 shell pairs

Calculating one electron integrals          ... done (  0.0 sec)
Calculating RI/J V-Matrix + Cholesky decomp.... done (  0.1 sec)
Calculating Nuclear repulsion               ... done (  0.0 sec) ENN=      9.630946632307 Eh

SHARK setup successfully completed in   0.4 seconds

Maximum memory used throughout the entire GTOINT-calculation: 14.0 MB


           ************************************************************
           *        Program running with 18 parallel MPI-processes    *
           *              working on a common directory               *
           ************************************************************

Diagonalization of the overlap matrix:
Smallest eigenvalue                        ... 4.124e-05
Time for diagonalization                   ...    0.002 sec
Threshold for overlap eigenvalues          ... 1.000e-08
Number of eigenvalues below threshold      ... 0
Time for construction of square roots      ...    0.011 sec
Total time needed                          ...    0.014 sec

-------------------
DFT GRID GENERATION
-------------------

General Integration Accuracy     IntAcc      ... 4.388
Radial Grid Type                 RadialGrid  ... OptM3 with GC (2021)
Angular Grid (max. ang.)         AngularGrid ... 4 (Lebedev-302)
Angular grid pruning method      GridPruning ... 4 (adaptive)
Weight generation scheme         WeightScheme... Becke
Basis function cutoff            BFCut       ... 1.0000e-11
Integration weight cutoff        WCut        ... 1.0000e-14
Angular grids for H and He will be reduced by one unit
Partially contracted basis set               ... off
Rotationally invariant grid construction     ... off

Total number of grid points                  ...    17038
Total number of batches                      ...      268
Average number of points per batch           ...       63
Average number of grid points per atom       ...     4260
Time for grid setup =    0.096 sec

--------------------
COSX GRID GENERATION
--------------------

GRIDX 1
-------
General Integration Accuracy     IntAcc      ... 3.816
Radial Grid Type                 RadialGrid  ... OptM3 with GC (2021)
Angular Grid (max. ang.)         AngularGrid ... 1 (Lebedev-50)
Angular grid pruning method      GridPruning ... 4 (adaptive)
Weight generation scheme         WeightScheme... Becke
Basis function cutoff            BFCut       ... 1.0000e-11
Integration weight cutoff        WCut        ... 1.0000e-14
Angular grids for H and He will be reduced by one unit
Partially contracted basis set               ... on
Rotationally invariant grid construction     ... off

Total number of grid points                  ...     2144
Total number of batches                      ...       36
Average number of points per batch           ...       59
Average number of grid points per atom       ...      536
UseSFitting                                  ... on

GRIDX 2
-------
General Integration Accuracy     IntAcc      ... 4.020
Radial Grid Type                 RadialGrid  ... OptM3 with GC (2021)
Angular Grid (max. ang.)         AngularGrid ... 2 (Lebedev-110)
Angular grid pruning method      GridPruning ... 4 (adaptive)
Weight generation scheme         WeightScheme... Becke
Basis function cutoff            BFCut       ... 1.0000e-11
Integration weight cutoff        WCut        ... 1.0000e-14
Angular grids for H and He will be reduced by one unit
Partially contracted basis set               ... on
Rotationally invariant grid construction     ... off

Total number of grid points                  ...     5060
Total number of batches                      ...       81
Average number of points per batch           ...       62
Average number of grid points per atom       ...     1265
UseSFitting                                  ... on

GRIDX 3
-------
General Integration Accuracy     IntAcc      ... 4.338
Radial Grid Type                 RadialGrid  ... OptM3 with GC (2021)
Angular Grid (max. ang.)         AngularGrid ... 3 (Lebedev-194)
Angular grid pruning method      GridPruning ... 4 (adaptive)
Weight generation scheme         WeightScheme... Becke
Basis function cutoff            BFCut       ... 1.0000e-11
Integration weight cutoff        WCut        ... 1.0000e-14
Angular grids for H and He will be reduced by one unit
Partially contracted basis set               ... on
Rotationally invariant grid construction     ... off

Total number of grid points                  ...    11716
Total number of batches                      ...      185
Average number of points per batch           ...       63
Average number of grid points per atom       ...     2929
UseSFitting                                  ... on

Time for X-Grid setup             =    0.240 sec

--------------
SCF ITERATIONS
--------------
ITER       Energy         Delta-E        Max-DP      RMS-DP      [F,P]     Damp
               ***  Starting incremental Fock matrix formation  ***
  0    -39.8002944100   0.000000000000 0.01801463  0.00029550  0.0056741 0.7000
  1    -39.8003623520  -0.000067942052 0.01564837  0.00025742  0.0041419 0.7000
                               ***Turning on DIIS***
  2    -39.8004078395  -0.000045487459 0.04014039  0.00066149  0.0030081 0.0000
  3    -39.8005078299  -0.000099990432 0.00689013  0.00011799  0.0007800 0.0000
               *** Restarting incremental Fock matrix formation ***
                                   *** Resetting DIIS ***
  4    -39.8005125735  -0.000004743583 0.00098902  0.00002391  0.0003775 0.0000
  5    -39.8005133500  -0.000000776492 0.00051251  0.00001011  0.0002199 0.0000
  6    -39.8005136856  -0.000000335571 0.00024721  0.00000580  0.0000475 0.0000
  7    -39.8005137119  -0.000000026312 0.00009285  0.00000182  0.0000110 0.0000
                 **** Energy Check signals convergence ****

               *****************************************************
               *                     SUCCESS                       *
               *           SCF CONVERGED AFTER   8 CYCLES          *
               *****************************************************

Old exchange energy                            =     -2.167843380 Eh
New exchange energy                            =     -2.167846709 Eh
Exchange energy change after final integration =     -0.000003328 Eh
Total energy after final integration           =    -39.800517041 Eh
Final COS-X integration done in                =     0.129 sec
Total Energy       :          -39.80051704 Eh           -1083.02713 eV
  Last Energy change         ...   -1.1821e-09  Tolerance :   1.0000e-08
  Last MAX-Density change    ...    0.0000e+00  Tolerance :   1.0000e-07
             **** THE GBW FILE WAS UPDATED (/beegfs/scratch/ispackman/PFAS_EPR_calcs/benchmark/JChemEd_CF3_radical/CH3_radical_97.0_degrees_IN-PROGRESS/CH3_radical_97.0_degrees.gbw) ****
             **** DENSITY /beegfs/scratch/ispackman/PFAS_EPR_calcs/benchmark/JChemEd_CF3_radical/CH3_radical_97.0_degrees_IN-PROGRESS/CH3_radical_97.0_degrees.scfp WAS UPDATED ****
             **** ENERGY FILE WAS UPDATED (/beegfs/scratch/ispackman/PFAS_EPR_calcs/benchmark/JChemEd_CF3_radical/CH3_radical_97.0_degrees_IN-PROGRESS/CH3_radical_97.0_degrees.en.tmp) ****
----------------------
UHF SPIN CONTAMINATION
----------------------

Warning: in a DFT calculation there is little theoretical justification to 
         calculate <S**2> as in Hartree-Fock theory. We will do it anyways
         but you should keep in mind that the values have only limited relevance

Expectation value of <S**2>     :     0.753263
Ideal value S*(S+1) for S=0.5   :     0.750000
Deviation                       :     0.003263

             **** THE GBW FILE WAS UPDATED (/beegfs/scratch/ispackman/PFAS_EPR_calcs/benchmark/JChemEd_CF3_radical/CH3_radical_97.0_degrees_IN-PROGRESS/CH3_radical_97.0_degrees.gbw) ****
             **** DENSITY /beegfs/scratch/ispackman/PFAS_EPR_calcs/benchmark/JChemEd_CF3_radical/CH3_radical_97.0_degrees_IN-PROGRESS/CH3_radical_97.0_degrees.scfp WAS UPDATED ****
Total SCF time: 0 days 0 hours 0 min 5 sec 

Maximum memory used throughout the entire SCF-calculation: 58.5 MB


-------------------------------------------------------------------------------
                          DFT DISPERSION CORRECTION                            
                                                                               
                              DFTD3 V3.1  Rev 1                                
                              USING zero damping                               
-------------------------------------------------------------------------------
-------------------------   ----------------
Dispersion correction           -0.000006775
-------------------------   ----------------


-------------------------   --------------------
FINAL SINGLE POINT ENERGY       -39.800523815932
-------------------------   --------------------



           ************************************************************
           *        Program running with 18 parallel MPI-processes    *
           *              working on a common directory               *
           ************************************************************
------------------------------------------------------------------------------
                         ORCA SCF GRADIENT CALCULATION
------------------------------------------------------------------------------

 ... reading COSX grid (gridx3)
Gradient of the Kohn-Sham DFT energy:
Kohn-Sham wavefunction type      ... UKS
Hartree-Fock exchange scaling    ...    0.196
Number of operators              ...    2
Number of atoms                  ...    4
Basis set dimensions             ...   64
Integral neglect threshold       ... 2.5e-11
Integral primitive cutoff        ... 2.5e-12
SHARK Integral package           ... ON

Nuc. rep. gradient       (SHARK) ... done (  0.0 sec)
HCore & Overlap gradient (SHARK) ... done (  0.0 sec)
RI-J gradient            (SHARK) ... done (  0.1 sec)
COSX-gradient                    ... done (  0.1 sec)
Exchange-correlation gradient    ... done
Dispersion correction            ... done

------------------
CARTESIAN GRADIENT
------------------

WARNING: THERE ARE 3 CONSTRAINED CARTESIAN COORDINATES
   1   C   :   -0.000099554   -0.000000005    0.088987802
   2   H   :   -0.018081660   -0.000000013   -0.029677248
   3   H   :    0.009062864   -0.015610535   -0.029640232
   4   H   :    0.009062854    0.015610515   -0.029640277

Difference to translation invariance:
           :   -0.0000554963   -0.0000000379    0.0000300444

Difference to rotation invariance:
           :    0.0000000372    0.0000193196   -0.0000000198

Norm of the cartesian gradient     ...    0.1074023345
RMS gradient                       ...    0.0310043834
MAX gradient                       ...    0.0889878017

-------
TIMINGS
-------

Total SCF gradient time            ...        0.611 sec

One electron gradient       ....       0.006 sec  (  1.1%)
RI-J Coulomb gradient       ....       0.122 sec  ( 20.0%)
COSX gradient               ....       0.122 sec  ( 20.0%)
XC gradient                 ....       0.058 sec  (  9.6%)

Maximum memory used throughout the entire SCFGRAD-calculation: 33.6 MB
------------------------------------------------------------------------------
                         ORCA GEOMETRY RELAXATION STEP
------------------------------------------------------------------------------

Reading the OPT-File                    .... done
Getting information on internals        .... done
Copying old internal coords+grads       .... done
Making the new internal coordinates     .... (new redundants).... done
Validating the new internal coordinates .... (new redundants).... done
Calculating the B-matrix                .... done
Calculating the G,G- and P matrices     .... done
Transforming gradient to internals      .... done
Projecting the internal gradient        .... done
Number of atoms                         ....   4
Number of internal coordinates          ....   7
Current Energy                          ....   -39.800523816 Eh
Current gradient norm                   ....     0.107402334 Eh/bohr
Maximum allowed component of the step   ....  0.300
Current trust radius                    ....  0.300
Updating the Hessian (BFGS)             .... done
Forming the augmented Hessian           .... done
Diagonalizing the augmented Hessian     .... done
Last element of RFO vector              ....  0.999993693
Lowest eigenvalues of augmented Hessian:
 -0.000004476  0.354839909  0.373574723  0.373576527 999.999999977
Length of the computed step             ....  0.003551759
The final length of the internal step   ....  0.003551759
Converting the step to cartesian space:
 Initial RMS(Int)=    0.0013424389
Transforming coordinates:
 Iter   0:  RMS(Cart)=    0.0009232964 RMS(Int)=    0.0013424389
 Iter   1:  RMS(Cart)=    0.0000000000 RMS(Int)=    0.0000000000
Imposing constraints:
 Iter   0:  RMS(Cart)=    0.0000000005 RMS(Int)=    0.0000000011
CONVERGED
done
Storing new coordinates                 .... done

                                .--------------------.
          ----------------------|Geometry convergence|-------------------------
          Item                value                   Tolerance       Converged
          ---------------------------------------------------------------------
          Energy change      -0.0007581283            0.0000050000      NO
          RMS gradient        0.0004763509            0.0001000000      NO
          MAX gradient        0.0007322526            0.0003000000      NO
          RMS step            0.0013424389            0.0020000000      YES
          MAX step            0.0020636637            0.0040000000      YES
          ........................................................
          Max(Bonds)      0.0011      Max(Angles)    0.00
          Max(Dihed)        0.00      Max(Improp)    0.00
          ---------------------------------------------------------------------

The optimization has not yet converged - more geometry cycles are needed


    ---------------------------------------------------------------------------
                         Redundant Internal Coordinates
                            (Angstroem and degrees)

        Definition                    Value    dE/dq     Step     New-Value
    ----------------------------------------------------------------------------
     1. B(H   1,C   0)                1.0991 -0.000718  0.0011    1.1001   
     2. B(H   2,C   0)                1.0991 -0.000732  0.0011    1.1002   
     3. B(H   3,C   0)                1.0991 -0.000732  0.0011    1.1002   
     4. A(H   2,C   0,H   3)           97.00 -0.050481   -0.00     97.00 C 
     5. A(H   1,C   0,H   2)           97.00 -0.023564   -0.00     97.00 C 
     6. A(H   1,C   0,H   3)           97.00 -0.023564   -0.00     97.00 C 
     7. I(H   1,H   3,H   2,C   0)     79.40  0.041248    0.00     79.40   
    ----------------------------------------------------------------------------

         *************************************************************
         *                GEOMETRY OPTIMIZATION CYCLE   3            *
         *************************************************************
---------------------------------
CARTESIAN COORDINATES (ANGSTROEM)
---------------------------------
  C      0.000008   -0.000000    0.007587
  H      0.951419   -0.000000   -0.544775
  H     -0.475714    0.823969   -0.544780
  H     -0.475714   -0.823969   -0.544780

----------------------------
CARTESIAN COORDINATES (A.U.)
----------------------------
  NO LB      ZA    FRAG     MASS         X           Y           Z
   0 C     6.0000    0    12.011    0.000016   -0.000000    0.014338
   1 H     1.0000    0     1.008    1.797922   -0.000000   -1.029476
   2 H     1.0000    0     1.008   -0.898969    1.557076   -1.029485
   3 H     1.0000    0     1.008   -0.898969   -1.557076   -1.029485

--------------------------------
INTERNAL COORDINATES (ANGSTROEM)
--------------------------------
 C      0   0   0     0.000000000000     0.00000000     0.00000000
 H      1   0   0     1.100130697687     0.00000000     0.00000000
 H      1   2   0     1.100157222740    96.99999982     0.00000000
 H      1   2   3     1.100157208933    96.99999982    97.97741217

---------------------------
INTERNAL COORDINATES (A.U.)
---------------------------
 C      0   0   0     0.000000000000     0.00000000     0.00000000
 H      1   0   0     2.078945730149     0.00000000     0.00000000
 H      1   2   0     2.078995855234    96.99999982     0.00000000
 H      1   2   3     2.078995829143    96.99999982    97.97741217



           ************************************************************
           *        Program running with 18 parallel MPI-processes    *
           *              working on a common directory               *
           ************************************************************
------------------------------------------------------------------------------
                   ___                                                        
                  /   \      - P O W E R E D   B Y -                         
                 /     \                                                     
                 |  |  |   _    _      __       _____    __    __             
                 |  |  |  | |  | |    /  \     |  _  \  |  |  /  |          
                  \  \/   | |  | |   /    \    | | | |  |  | /  /          
                 / \  \   | |__| |  /  /\  \   | |_| |  |  |/  /          
                |  |  |   |  __  | /  /__\  \  |    /   |      \           
                |  |  |   | |  | | |   __   |  |    \   |  |\   \          
                \     /   | |  | | |  |  |  |  | |\  \  |  | \   \       
[...]
  ZA   - Total nuclear charge
  QA   - Mulliken gross atomic charge
  VA   - Mayer's total valence
  BVA  - Mayer's bonded valence
  FA   - Mayer's free valence

  ATOM       NA         ZA         QA         VA         BVA        FA
  0 C      6.6592     6.0000    -0.6592     3.8479     3.0645     0.7834
  1 H      0.7806     1.0000     0.2194     1.0125     1.0113     0.0011
  2 H      0.7801     1.0000     0.2199     1.0118     1.0107     0.0011
  3 H      0.7801     1.0000     0.2199     1.0118     1.0107     0.0011

  Mayer bond orders larger than 0.100000
B(  0-C ,  1-H ) :   1.0219 B(  0-C ,  2-H ) :   1.0213 B(  0-C ,  3-H ) :   1.0213 


-------
TIMINGS
-------

Total SCF time: 0 days 0 hours 0 min 4 sec 

Total time                  ....       4.155 sec
Sum of individual times     ....       3.606 sec  ( 86.8%)

Fock matrix formation       ....       2.927 sec  ( 70.4%)
  Split-RI-J                ....       0.510 sec  ( 17.4% of F)
  Chain of spheres X        ....       0.761 sec  ( 26.0% of F)
  XC integration            ....       0.567 sec  ( 19.4% of F)
    Basis function eval.    ....       0.026 sec  (  4.6% of XC)
    Density eval.           ....       0.025 sec  (  4.4% of XC)
    XC-Functional eval.     ....       0.027 sec  (  4.8% of XC)
    XC-Potential eval.      ....       0.033 sec  (  5.8% of XC)
Diagonalization             ....       0.080 sec  (  1.9%)
Density matrix formation    ....       0.006 sec  (  0.1%)
Population analysis         ....       0.130 sec  (  3.1%)
Initial guess               ....       0.006 sec  (  0.1%)
Orbital Transformation      ....       0.000 sec  (  0.0%)
Orbital Orthonormalization  ....       0.002 sec  (  0.0%)
DIIS solution               ....       0.116 sec  (  2.8%)
Grid generation             ....       0.342 sec  (  8.2%)

Maximum memory used throughout the entire SCF-calculation: 58.5 MB


-------------------------------------------------------------------------------
                          DFT DISPERSION CORRECTION                            
                                                                               
                              DFTD3 V3.1  Rev 1                                
                              USING zero damping                               
-------------------------------------------------------------------------------
The omegaB97X-D3 functional is recognized. Fit by Chai et al.
Active option DFTDOPT                   ...         3   

molecular C6(AA) [au] = 107.009720 


            DFT-D V3
 parameters
 s6 scaling factor         :     1.0000 
 rs6 scaling factor        :     1.2810 
 s8 scaling factor         :     1.0000 
 rs8 scaling factor        :     1.0940 
 Damping factor alpha6     :    14.0000 
 Damping factor alpha8     :    16.0000 
 ad hoc parameters k1-k3   :    16.0000     1.3333    -4.0000 

 Edisp/kcal,au: -0.004286936343  -0.000006831667 
 E6   /kcal   :  -0.000666204 
 E8   /kcal   :  -0.003620732 
 % E8         :  84.459663070 

-------------------------   ----------------
Dispersion correction           -0.000006832
-------------------------   ----------------


-------------------------   --------------------
FINAL SINGLE POINT ENERGY       -39.800526235566
-------------------------   --------------------

                                *** OPTIMIZATION RUN DONE ***

                            ***************************************
                            *     ORCA property calculations      *
                            ***************************************

                                    ---------------------
                                    Active property flags
                                    ---------------------
   (+) Dipole Moment


------------------------------------------------------------------------------
                       ORCA ELECTRIC PROPERTIES CALCULATION
------------------------------------------------------------------------------

Dipole Moment Calculation                       ... on
Quadrupole Moment Calculation                   ... off
Polarizability Calculation                      ... off
GBWName                                         ... /beegfs/scratch/ispackman/PFAS_EPR_calcs/benchmark/JChemEd_CF3_radical/CH3_radical_97.0_degrees_IN-PROGRESS/CH3_radical_97.0_degrees.gbw
Electron density                                ... /beegfs/scratch/ispackman/PFAS_EPR_calcs/benchmark/JChemEd_CF3_radical/CH3_radical_97.0_degrees_IN-PROGRESS/CH3_radical_97.0_degrees.scfp
The origin for moment calculation is the CENTER OF MASS  = ( 0.000013,  0.000000 -0.195574)

-------------
DIPOLE MOMENT
-------------
                                X             Y             Z
Electronic contribution:      0.00010      -0.00000       0.92839
Nuclear contribution   :     -0.00003      -0.00000      -1.24203
                        -----------------------------------------
Total Dipole Moment    :      0.00007      -0.00000      -0.31364
                        -----------------------------------------
Magnitude (a.u.)       :      0.31364
Magnitude (Debye)      :      0.79721



--------------------
Rotational spectrum 
--------------------
 
Rotational constants in cm-1:     8.004662     8.004477     6.157613 
Rotational constants in MHz : 239973.741289 239968.197189 184600.589499 

 Dipole components along the rotational axes: 
x,y,z [a.u.] :     0.000000     0.000062    -0.313640 
x,y,z [Debye]:     0.000000     0.000159    -0.797211 

 


           ************************************************************
           *        Program running with 18 parallel MPI-processes    *
           *              working on a common directory               *
           ************************************************************

-------------------------------------------------------------------------------
                               ORCA SCF HESSIAN
-------------------------------------------------------------------------------

                   --------- SHARK INITIALIZATION DONE ---------

Hessian of the Kohn-Sham DFT energy:
Kohn-Sham wavefunction type                      ... UKS
Hartree-Fock exchange scaling                    ...    0.196
Number of operators                              ...    2
Number of atoms                                  ...    4
Basis set dimensions                             ...   64
Integral neglect threshold                       ... 2.5e-11
Integral primitive cutoff                        ... 2.5e-12

Setting up DFT Hessian calculations              ... 

HESS GRID
---------

General Integration Accuracy     IntAcc      ... 4.629
Radial Grid Type                 RadialGrid  ... OptM3 with GC (2021)
Angular Grid (max. ang.)         AngularGrid ... 5 (Lebedev-434)
Angular grid pruning method      GridPruning ... 4 (adaptive)
Weight generation scheme         WeightScheme... Becke
Basis function cutoff            BFCut       ... 1.0000e-11
Integration weight cutoff        WCut        ... 1.0000e-14
Angular grids for H and He will be reduced by one unit
Partially contracted basis set               ... off
Rotationally invariant grid construction     ... off

Total number of grid points                  ...    27264
Total number of batches                      ...      428
Average number of points per batch           ...       63
Average number of grid points per atom       ...     6816

Building densities                               ... done   (      0.0 sec)
Calculating rho(r) on the grid                   ... done   (      0.1 sec)
Building xc-kernel on the grid                   ... done   (      0.1 sec)
                                                     done   (      0.4 sec)

Nuclear repulsion Hessian  (SHARK)               ... done   (      0.0 sec)

----------------------------------------------
Forming right-hand sides of CP-SCF equations     ...
----------------------------------------------
One electron integral derivatives  (SHARK)       ... done   (      0.0 sec)
Transforming the overlap derivative matrices     ... done   (      0.0 sec)
Making the Q(x) pseudodensities                  ... done   (      0.0 sec)
Adding the E*S(x)*S(y) terms to the Hessian      ... done   (      0.0 sec)
Calculating energy weighted overlap derivatives  ... done   (      0.0 sec)
Two electron integral derivatives (SHARK-RI)     ... done   (      0.6 sec)
Exchange-correlation integral derivatives        ... done   (      0.4 sec)
tr(F(y)Q(x)) contribution to the Hessian         ... done   (      0.0 sec)
Response fock operator R(S(x)) (SHARK-RIJCOSX)   ... done   (      0.6 sec)
XC Response fock operator R(S(x))                ... done   (      0.1 sec)
tr(F(y)S(x)) contribution to the Hessian         ... done   (      0.0 sec)
Transforming and finalizing RHSs                 ... done   (      0.0 sec)

----------------------------------------------
Solving the CP-SCF equations (RIJCOSX)           ...
----------------------------------------------
     CP-SCF ITERATION   0:   1.3441e-01 (   0.3 sec   0/ 12 done)
     CP-SCF ITERATION   1:   3.1519e-02 (   0.3 sec   0/ 12 done)
     CP-SCF ITERATION   2:   1.2059e-02 (   0.3 sec   0/ 12 done)
     CP-SCF ITERATION   3:   4.0901e-03 (   0.3 sec   0/ 12 done)
     CP-SCF ITERATION   4:   6.4586e-04 (   0.3 sec   1/ 12 done)
     CP-SCF ITERATION   5:   1.4981e-04 (   0.3 sec   5/ 12 done)
     CP-SCF ITERATION   6:   3.3244e-05 (   0.3 sec  12/ 12 done)
                    *** THE CP-SCF HAS CONVERGED ***

                                                 ... done   (      2.3 sec)
Forming perturbed density Hessian contributions  ... done   (      0.0 sec)
2nd integral derivative contribs (SHARK-RI)      ... done   (      0.8 sec)
Exchange-correlation Hessian                     ... done   (      0.3 sec)
Dispersion correction in the Hessian             ... done   (      0.1 sec)
Dipole derivatives                               ... (center of mass:  0.000013,  0.000000 -0.195574)done   (      0.1 sec)

Total SCF Hessian time: 0 days 0 hours 0 min 6 sec 

Writing the Hessian file to the disk             ... done


Maximum memory used throughout the entire SCFHESS-calculation: 109.4 MB

-----------------------
VIBRATIONAL FREQUENCIES
-----------------------

Scaling factor for frequencies =  1.000000000  (already applied!)

   0:         0.00 cm**-1
   1:         0.00 cm**-1
   2:         0.00 cm**-1
   3:         0.00 cm**-1
   4:         0.00 cm**-1
   5:         0.00 cm**-1
   6:      1357.02 cm**-1
   7:      1380.49 cm**-1
   8:      1381.74 cm**-1
   9:      3038.76 cm**-1
  10:      3054.22 cm**-1
  11:      3054.42 cm**-1


------------
NORMAL MODES
------------

These modes are the Cartesian displacements weighted by the diagonal matrix
M(i,i)=1/sqrt(m[i]) where m[i] is the mass of the displaced atom
Thus, these vectors are normalized but *not* orthogonal

                  0          1          2          3          4          5    
      0       0.000000   0.000000   0.000000   0.000000   0.000000   0.000000
      1       0.000000   0.000000   0.000000   0.000000   0.000000   0.000000
      2       0.000000   0.000000   0.000000   0.000000   0.000000   0.000000
      3       0.000000   0.000000   0.000000   0.000000   0.000000   0.000000
      4       0.000000   0.000000   0.000000   0.000000   0.000000   0.000000
      5       0.000000   0.000000   0.000000   0.000000   0.000000   0.000000
      6       0.000000   0.000000   0.000000   0.000000   0.000000   0.000000
      7       0.000000   0.000000   0.000000   0.000000   0.000000   0.000000
      8       0.000000   0.000000   0.000000   0.000000   0.000000   0.000000
      9       0.000000   0.000000   0.000000   0.000000   0.000000   0.000000
     10       0.000000   0.000000   0.000000   0.000000   0.000000   0.000000
     11       0.000000   0.000000   0.000000   0.000000   0.000000   0.000000
                  6          7          8          9         10         11    
      0      -0.005048   0.000007   0.068862   0.001069  -0.083250  -0.000056
      1      -0.000001  -0.069050   0.000007  -0.000001  -0.000056   0.083224
      2       0.126411  -0.000001   0.008340  -0.057674  -0.000739  -0.000002
      3      -0.285615   0.000020   0.161403  -0.538019   0.708173   0.000470
      4       0.000010   0.727943  -0.000073  -0.000001  -0.000037   0.054284
      5      -0.525385   0.000035   0.284460   0.234009  -0.381005  -0.000254
      6       0.172886   0.392839  -0.491007   0.262636   0.141677   0.333382
      7      -0.206811   0.047376  -0.407717  -0.453745  -0.338870  -0.523211
      8      -0.490449  -0.275793  -0.191888   0.226603   0.194679   0.332529
      9       0.172875  -0.392942  -0.490928   0.262646   0.142128  -0.333181
     10       0.206812   0.047453   0.407707   0.453762   0.339578  -0.522737
     11      -0.490441   0.275767  -0.191944   0.226614   0.195129  -0.332257


-----------
IR SPECTRUM
-----------

 Mode   freq       eps      Int      T**2         TX        TY        TZ
       cm**-1   L/(mol*cm) km/mol    a.u.
----------------------------------------------------------------------------
  6:   1357.02   0.001331    6.73  0.000306  ( 0.001229  0.000000 -0.017454)
  7:   1380.49   0.001089    5.50  0.000246  (-0.000002  0.015691  0.000000)
  8:   1381.74   0.001120    5.66  0.000253  (-0.015856 -0.000002 -0.001237)
  9:   3038.76   0.000016    0.08  0.000002  ( 0.000441 -0.000000 -0.001211)
 10:   3054.22   0.008209   41.49  0.000839  (-0.028962 -0.000020 -0.000059)
 11:   3054.42   0.008376   42.33  0.000856  (-0.000020  0.029254 -0.000000)

* The epsilon (eps) is given for a Dirac delta lineshape.
** The dipole moment derivative (T) already includes vibrational overlap.

The first frequency considered to be a vibration is 6
The total number of vibrations considered is 6


--------------------------
THERMOCHEMISTRY AT 298.15K
--------------------------

Temperature         ... 298.15 K
Pressure            ... 1.00 atm
Total Mass          ... 15.03 AMU

Throughout the following assumptions are being made:
  (1) The electronic state is orbitally nondegenerate
      but the spin degeneracy is treated
  (2) There are no thermally accessible electronically excited states
  (3) Hindered rotations indicated by low frequency modes are not
      treated as such but are treated as vibrations and this may
      cause some error
  (4) All equations used are the standard statistical mechanics
      equations for an ideal gas
  (5) All vibrations are strictly harmonic

freq.    1357.02  E(vib)   ...       0.01 
freq.    1380.49  E(vib)   ...       0.01 
freq.    1381.74  E(vib)   ...       0.01 
freq.    3038.76  E(vib)   ...       0.00 
freq.    3054.22  E(vib)   ...       0.00 
freq.    3054.42  E(vib)   ...       0.00 

------------
INNER ENERGY
------------

The inner energy is: U= E(el) + E(ZPE) + E(vib) + E(rot) + E(trans)
    E(el)   - is the total energy from the electronic structure calculation
              = E(kin-el) + E(nuc-el) + E(el-el) + E(nuc-nuc)
    E(ZPE)  - the the zero temperature vibrational energy from the frequency calculation
    E(vib)  - the the finite temperature correction to E(ZPE) due to population
              of excited vibrational states
    E(rot)  - is the rotational thermal energy
    E(trans)- is the translational thermal energy

Summary of contributions to the inner energy U:
Electronic energy                ...    -39.80052624 Eh
Zero point energy                ...      0.03022364 Eh      18.97 kcal/mol
Thermal vibrational correction   ...      0.00002496 Eh       0.02 kcal/mol
Thermal rotational correction    ...      0.00141627 Eh       0.89 kcal/mol
Thermal translational correction ...      0.00141627 Eh       0.89 kcal/mol
-----------------------------------------------------------------------
Total thermal energy                    -39.76744509 Eh


Summary of corrections to the electronic energy:
(perhaps to be used in another calculation)
Total thermal correction                  0.00285750 Eh       1.79 kcal/mol
Non-thermal (ZPE) correction              0.03022364 Eh      18.97 kcal/mol
-----------------------------------------------------------------------
Total correction                          0.03308114 Eh      20.76 kcal/mol


--------
ENTHALPY
--------

The enthalpy is H = U + kB*T
                kB is Boltzmann's constant
Total free energy                 ...    -39.76744509 Eh 
Thermal Enthalpy correction       ...      0.00094421 Eh       0.59 kcal/mol
-----------------------------------------------------------------------
Total Enthalpy                    ...    -39.76650089 Eh


Note: Rotational entropy computed according to Herzberg 
Infrared and Raman Spectra, Chapter V,1, Van Nostrand Reinhold, 1945 
Point Group:  C3v, Symmetry Number:   3  
Rotational constants in cm-1:     8.004662     8.004477     6.157613 

Vibrational entropy computed according to the QRRHO of S. Grimme
Chem.Eur.J. 2012 18 9955


-------
ENTROPY
-------

The entropy contributions are T*S = T*(S(el)+S(vib)+S(rot)+S(trans))
     S(el)   - electronic entropy
     S(vib)  - vibrational entropy
     S(rot)  - rotational entropy
     S(trans)- translational entropy
The entropies will be listed as multiplied by the temperature to get
units of energy

Electronic entropy                ...      0.00065446 Eh      0.41 kcal/mol
Vibrational entropy               ...      0.00002873 Eh      0.02 kcal/mol
Rotational entropy                ...      0.00565150 Eh      3.55 kcal/mol
Translational entropy             ...      0.01618771 Eh     10.16 kcal/mol
-----------------------------------------------------------------------
Final entropy term                ...      0.02252239 Eh     14.13 kcal/mol

In case the symmetry of your molecule has not been determined correctly
or in case you have a reason to use a different symmetry number we print 
out the resulting rotational entropy values for sn=1,12 :
 --------------------------------------------------------
|  sn= 1 | S(rot)=       0.00668879 Eh      4.20 kcal/mol|
|  sn= 2 | S(rot)=       0.00603433 Eh      3.79 kcal/mol|
|  sn= 3 | S(rot)=       0.00565150 Eh      3.55 kcal/mol|
|  sn= 4 | S(rot)=       0.00537988 Eh      3.38 kcal/mol|
|  sn= 5 | S(rot)=       0.00516919 Eh      3.24 kcal/mol|
|  sn= 6 | S(rot)=       0.00499704 Eh      3.14 kcal/mol|
|  sn= 7 | S(rot)=       0.00485150 Eh      3.04 kcal/mol|
|  sn= 8 | S(rot)=       0.00472542 Eh      2.97 kcal/mol|
|  sn= 9 | S(rot)=       0.00461421 Eh      2.90 kcal/mol|
|  sn=10 | S(rot)=       0.00451473 Eh      2.83 kcal/mol|
|  sn=11 | S(rot)=       0.00442474 Eh      2.78 kcal/mol|
|  sn=12 | S(rot)=       0.00434259 Eh      2.73 kcal/mol|
 --------------------------------------------------------


-------------------
GIBBS FREE ENERGY
-------------------

The Gibbs free energy is G = H - T*S

Total enthalpy                    ...    -39.76650089 Eh 
Total entropy correction          ...     -0.02252239 Eh    -14.13 kcal/mol
-----------------------------------------------------------------------
Final Gibbs free energy         ...    -39.78902328 Eh

For completeness - the Gibbs free energy minus the electronic energy
G-E(el)                           ...      0.01150296 Eh      7.22 kcal/mol


Timings for individual modules:

Sum of individual times         ...       63.093 sec (=   1.052 min)
GTO integral calculation        ...       11.723 sec (=   0.195 min)  18.6 %
SCF iterations                  ...       32.111 sec (=   0.535 min)  50.9 %
SCF Gradient evaluation         ...       10.289 sec (=   0.171 min)  16.3 %
Geometry relaxation             ...        0.167 sec (=   0.003 min)   0.3 %
Analytical frequency calculation...        8.803 sec (=   0.147 min)  14.0 %
                             ****ORCA TERMINATED NORMALLY****
TOTAL RUN TIME: 0 days 0 hours 1 minutes 15 seconds 871 msec

slurmID:    32260136
totalRuntime[s]:    75.915615044
