
                                 *****************
                                 * O   R   C   A *
                                 *****************

                                            #,                                       
                                            ###                                      
                                            ####                                     
                                            #####                                    
                                            ######                                   
                                           ########,                                 
                                     ,,################,,,,,                         
                               ,,#################################,,                 
                          ,,##########################################,,             
                       ,#########################################, ''#####,          
                    ,#############################################,,   '####,        
                  ,##################################################,,,,####,       
                ,###########''''           ''''###############################       
              ,#####''   ,,,,##########,,,,          '''####'''          '####       
            ,##' ,,,,###########################,,,                        '##       
           ' ,,###''''                  '''############,,,                           
         ,,##''                                '''############,,,,        ,,,,,,###''
      ,#''                                            '''#######################'''  
     '                                                          ''''####''''         
             ,#######,   #######,   ,#######,      ##                                
            ,#'     '#,  ##    ##  ,#'     '#,    #''#        ######   ,####,        
            ##       ##  ##   ,#'  ##            #'  '#       #        #'  '#        
            ##       ##  #######   ##           ,######,      #####,   #    #        
            '#,     ,#'  ##    ##  '#,     ,#' ,#      #,         ##   #,  ,#        
             '#######'   ##     ##  '#######'  #'      '#     #####' # '####'        



                  #######################################################
                  #                        -***-                        #
                  #          Department of theory and spectroscopy      #
                  #    Directorship and core code : Frank Neese         #
                  #        Max Planck Institute fuer Kohlenforschung    #
                  #                Kaiser Wilhelm Platz 1               #
                  #                 D-45470 Muelheim/Ruhr               #
                  #                      Germany                        #
                  #                                                     #
                  #                  All rights reserved                #
                  #                        -***-                        #
                  #######################################################


                         Program Version 5.0.4 -  RELEASE  -


 With contributions from (in alphabetic order):
   Daniel Aravena         : Magnetic Suceptibility
   Michael Atanasov       : Ab Initio Ligand Field Theory (pilot matlab implementation)
   Alexander A. Auer      : GIAO ZORA, VPT2 properties, NMR spectrum
   Ute Becker             : Parallelization
   Giovanni Bistoni       : ED, misc. LED, open-shell LED, HFLD
   Martin Brehm           : Molecular dynamics
   Dmytro Bykov           : SCF Hessian
   Vijay G. Chilkuri      : MRCI spin determinant printing, contributions to CSF-ICE
   Dipayan Datta          : RHF DLPNO-CCSD density
   Achintya Kumar Dutta   : EOM-CC, STEOM-CC
   Dmitry Ganyushin       : Spin-Orbit,Spin-Spin,Magnetic field MRCI
   Miquel Garcia          : C-PCM and meta-GGA Hessian, CC/C-PCM, Gaussian charge scheme
   Yang Guo               : DLPNO-NEVPT2, F12-NEVPT2, CIM, IAO-localization
   Andreas Hansen         : Spin unrestricted coupled pair/coupled cluster methods
   Benjamin Helmich-Paris : MC-RPA, TRAH-SCF, COSX integrals
   Lee Huntington         : MR-EOM, pCC
   Robert Izsak           : Overlap fitted RIJCOSX, COSX-SCS-MP3, EOM
   Marcus Kettner         : VPT2
   Christian Kollmar      : KDIIS, OOCD, Brueckner-CCSD(T), CCSD density, CASPT2, CASPT2-K
   Simone Kossmann        : Meta GGA functionals, TD-DFT gradient, OOMP2, MP2 Hessian
   Martin Krupicka        : Initial AUTO-CI
   Lucas Lang             : DCDCAS
   Marvin Lechner         : AUTO-CI (C++ implementation), FIC-MRCC
   Dagmar Lenk            : GEPOL surface, SMD
   Dimitrios Liakos       : Extrapolation schemes; Compound Job, initial MDCI parallelization
   Dimitrios Manganas     : Further ROCIS development; embedding schemes
   Dimitrios Pantazis     : SARC Basis sets
   Anastasios Papadopoulos: AUTO-CI, single reference methods and gradients
   Taras Petrenko         : DFT Hessian,TD-DFT gradient, ASA, ECA, R-Raman, ABS, FL, XAS/XES, NRVS
   Peter Pinski           : DLPNO-MP2, DLPNO-MP2 Gradient
   Christoph Reimann      : Effective Core Potentials
   Marius Retegan         : Local ZFS, SOC
   Christoph Riplinger    : Optimizer, TS searches, QM/MM, DLPNO-CCSD(T), (RO)-DLPNO pert. Triples
   Tobias Risthaus        : Range-separated hybrids, TD-DFT gradient, RPA, STAB
   Michael Roemelt        : Original ROCIS implementation
   Masaaki Saitow         : Open-shell DLPNO-CCSD energy and density
   Barbara Sandhoefer     : DKH picture change effects
   Avijit Sen             : IP-ROCIS
   Kantharuban Sivalingam : CASSCF convergence, NEVPT2, FIC-MRCI
   Bernardo de Souza      : ESD, SOC TD-DFT
   Georgi Stoychev        : AutoAux, RI-MP2 NMR, DLPNO-MP2 response
   Willem Van den Heuvel  : Paramagnetic NMR
   Boris Wezisla          : Elementary symmetry handling
   Frank Wennmohs         : Technical directorship


 We gratefully acknowledge several colleagues who have allowed us to
 interface, adapt or use parts of their codes:
   Stefan Grimme, W. Hujo, H. Kruse, P. Pracht,  : VdW corrections, initial TS optimization,
                  C. Bannwarth, S. Ehlert          DFT functionals, gCP, sTDA/sTD-DF
   Ed Valeev, F. Pavosevic, A. Kumar             : LibInt (2-el integral package), F12 methods
   Garnet Chan, S. Sharma, J. Yang, R. Olivares  : DMRG
   Ulf Ekstrom                                   : XCFun DFT Library
   Mihaly Kallay                                 : mrcc  (arbitrary order and MRCC methods)
   Jiri Pittner, Ondrej Demel                    : Mk-CCSD
   Frank Weinhold                                : gennbo (NPA and NBO analysis)
   Christopher J. Cramer and Donald G. Truhlar   : smd solvation model
   Lars Goerigk                                  : TD-DFT with DH, B97 family of functionals
   V. Asgeirsson, H. Jonsson                     : NEB implementation
   FAccTs GmbH                                   : IRC, NEB, NEB-TS, DLPNO-Multilevel, CI-OPT
                                                   MM, QMMM, 2- and 3-layer-ONIOM, Crystal-QMMM,
                                                   LR-CPCM, SF, NACMEs, symmetry and pop. for TD-DFT,
                                                   nearIR, NL-DFT gradient (VV10), updates on ESD,
                                                   ML-optimized integration grids
   S Lehtola, MJT Oliveira, MAL Marques          : LibXC Library
   Liviu Ungur et al                             : ANISO software


 Your calculation uses the libint2 library for the computation of 2-el integrals
 For citations please refer to: http://libint.valeyev.net

 Your ORCA version has been built with support for libXC version: 5.1.0
 For citations please refer to: https://tddft.org/programs/libxc/

 This ORCA versions uses:
   CBLAS   interface :  Fast vector & matrix operations
   LAPACKE interface :  Fast linear algebra routines
   SCALAPACK package :  Parallel linear algebra routines
   Shared memory     :  Shared parallel matrices
   BLAS/LAPACK       :  OpenBLAS 0.3.15  USE64BITINT DYNAMIC_ARCH NO_AFFINITY SkylakeX SINGLE_THREADED
        Core in use  :  SkylakeX
   Copyright (c) 2011-2014, The OpenBLAS Project


Your calculation utilizes the atom-pairwise dispersion correction
with the zero-damping scheme (D30)
Cite in your paper:
S.Grimme, J.Antony, S.Ehrlich and H.Krieg, J.Chem.Phys., 132, (2010), 154104 
   

XCFun DFT library Copyright 2009-2010 Ulf Ekstrom and contributors.
See http://admol.org/xcfun for more information.
This is free software; see the source code for copying conditions.
There is ABSOLUTELY NO WARRANTY; not even for MERCHANTABILITY or FITNESS FOR A PARTICULAR PURPOSE.
For details see the documentation.
Scientific users of this library should cite U. Ekstrom, L. Visscher, R. Bast, A. J. Thorvaldsen and K. Ruud;
J.Chem.Theor.Comp. 2010, DOI: 10.1021/ct100117s
XCFun Version 0.99 

================================================================================

----- Orbital basis set information -----
Your calculation utilizes the basis: def2-TZVPD
   F. Weigend and R. Ahlrichs, Phys. Chem. Chem. Phys. 7, 3297 (2005).
   D. Rappoport and F. Furche, J. Chem. Phys. 133 134105 (2010).

----- AuxJ basis set information -----
Your calculation utilizes the auxiliary basis: def2/J
   F. Weigend, Phys. Chem. Chem. Phys. 8, 1057 (2006).

================================================================================
                                        WARNINGS
                       Please study these warnings very carefully!
================================================================================


WARNING: Geometry Optimization
  ===> : Switching off AutoStart
         For restart on a previous wavefunction, please use MOREAD

INFO   : the flag for use of the SHARK integral package has been found!

================================================================================
                                       INPUT FILE
================================================================================
NAME = /beegfs/scratch/ispackman/PFAS_EPR_calcs/benchmark/JChemEd_CF3_radical/CH3_radical_95.5_degrees_IN-PROGRESS/CH3_radical_95.5_degrees.inp
|  1> ! UKS TightSCF wB97x-D3 def2-TZVPD xyzfile opt freq
|  2> 
|  3> # CH3 radical 95.5 degrees fixed
|  4> 
|  5> %maxcore 1000
|  6> %pal
|  7> nprocs 18
|  8> end
|  9> 
| 10> %geom Constraints
| 11>         { A * 0 * C }
| 12>     end
| 13> end
| 14> * xyz 0 2
| 15> C 0.00 0.00 0.00
| 16> H 0.9231086920 0.0000000000 -0.5605982009
| 17> H -0.4615543460 0.7994355777 -0.5605982009
| 18> H -0.4615543460 -0.7994355777 -0.5605982009
| 19> **                         ****END OF INPUT****
================================================================================

                       *****************************
                       * Geometry Optimization Run *
                       *****************************

Geometry optimization settings:
Update method            Update   .... BFGS
Choice of coordinates    CoordSys .... Z-matrix Internals
Initial Hessian          InHess   .... Almoef's Model

Convergence Tolerances:
Energy Change            TolE     ....  5.0000e-06 Eh
Max. Gradient            TolMAXG  ....  3.0000e-04 Eh/bohr
RMS Gradient             TolRMSG  ....  1.0000e-04 Eh/bohr
Max. Displacement        TolMAXD  ....  4.0000e-03 bohr
RMS Displacement         TolRMSD  ....  2.0000e-03 bohr
Strict Convergence                ....  False
------------------------------------------------------------------------------
                        ORCA OPTIMIZATION COORDINATE SETUP
------------------------------------------------------------------------------

The optimization will be done in new redundant internal coordinates
Making redundant internal coordinates   ...  (new redundants) done
Evaluating the initial hessian          ...  (Almloef) done
Evaluating the coordinates              ...  done
Calculating the B-matrix                .... done
Calculating the G-matrix                .... done
Diagonalizing the G-matrix              .... done
Imposing constraints:
 Iter   0:  RMS(Cart)=    0.0000000000 RMS(Int)=    0.0000000000
CONVERGED
Will constrain atom 0 coordinate 1 
Will constrain atom 0 coordinate 2 
Will constrain atom 1 coordinate 2 
The first mode is                       ....    1
The number of degrees of freedom        ....    6
Storing new coordinates                 .... done

    -----------------------------------------------------------------
                    Redundant Internal Coordinates


    -----------------------------------------------------------------
         Definition                    Initial Value    Approx d2E/dq
    -----------------------------------------------------------------
      1. B(H   1,C   0)                  1.0800         0.373575   
      2. B(H   2,C   0)                  1.0800         0.373575   
      3. B(H   3,C   0)                  1.0800         0.373575   
      4. A(H   2,C   0,H   3)           95.5000         0.294224 C 
      5. A(H   1,C   0,H   2)           95.5000         0.294224 C 
      6. A(H   1,C   0,H   3)           95.5000         0.294224 C 
      7. I(H   1,H   3,H   2,C   0)     81.8046         0.002508   
    -----------------------------------------------------------------

Number of atoms                         .... 4
Number of degrees of freedom            .... 7

         *************************************************************
         *                GEOMETRY OPTIMIZATION CYCLE   1            *
         *************************************************************
---------------------------------
CARTESIAN COORDINATES (ANGSTROEM)
---------------------------------
  C      0.000000    0.000000    0.000000
  H      0.923109    0.000000   -0.560598
  H     -0.461554    0.799436   -0.560598
  H     -0.461554   -0.799436   -0.560598

----------------------------
CARTESIAN COORDINATES (A.U.)
----------------------------
  NO LB      ZA    FRAG     MASS         X           Y           Z
   0 C     6.0000    0    12.011    0.000000    0.000000    0.000000
   1 H     1.0000    0     1.008    1.744423    0.000000   -1.059377
   2 H     1.0000    0     1.008   -0.872211    1.510714   -1.059377
   3 H     1.0000    0     1.008   -0.872211   -1.510714   -1.059377

--------------------------------
INTERNAL COORDINATES (ANGSTROEM)
--------------------------------
 C      0   0   0     0.000000000000     0.00000000     0.00000000
 H      1   0   0     1.080000000045     0.00000000     0.00000000
 H      1   2   0     1.080000000026    95.50000000     0.00000000
 H      1   2   3     1.080000000026    95.50000000    96.08512817

---------------------------
INTERNAL COORDINATES (A.U.)
---------------------------
 C      0   0   0     0.000000000000     0.00000000     0.00000000
 H      1   0   0     2.040904224721     0.00000000     0.00000000
 H      1   2   0     2.040904224684    95.50000000     0.00000000
 H      1   2   3     2.040904224684    95.50000000    96.08512817

---------------------
BASIS SET INFORMATION
---------------------
There are 2 groups of distinct atoms

 Group   1 Type C   : 12s6p3d1f contracted to 6s3p3d1f pattern {621111/411/111/1}
 Group   2 Type H   : 5s2p contracted to 3s2p pattern {311/11}

Atom   0C    basis set group =>   1
Atom   1H    basis set group =>   2
Atom   2H    basis set group =>   2
Atom   3H    basis set group =>   2
---------------------------------
AUXILIARY/J BASIS SET INFORMATION
---------------------------------
There are 2 groups of distinct atoms

 Group   1 Type C   : 12s5p4d2f1g contracted to 6s4p3d1f1g pattern {711111/2111/211/2/1}
 Group   2 Type H   : 5s2p1d contracted to 3s1p1d pattern {311/2/1}

Atom   0C    basis set group =>   1
Atom   1H    basis set group =>   2
Atom   2H    basis set group =>   2
Atom   3H    basis set group =>   2


           ************************************************************
           *        Program running with 18 parallel MPI-processes    *
           *              working on a common directory               *
           ************************************************************
------------------------------------------------------------------------------
                           ORCA GTO INTEGRAL CALCULATION
                           -- RI-GTO INTEGRALS CHOSEN --
------------------------------------------------------------------------------
------------------------------------------------------------------------------
                   ___                                                        
                  /   \      - P O W E R E D   B Y -                         
                 /     \                                                     
                 |  |  |   _    _      __       _____    __    __             
                 |  |  |  | |  | |    /  \     |  _  \  |  |  /  |          
                  \  \/   | |  | |   /    \    | | | |  |  | /  /          
                 / \  \   | |__| |  /  /\  \   | |_| |  |  |/  /          
                |  |  |   |  __  | /  /__\  \  |    /   |      \           
                |  |  |   | |  | | |   __   |  |    \   |  |\   \          
                \     /   | |  | | |  |  |  |  | |\  \  |  | \   \       
                 \___/    |_|  |_| |__|  |__|  |_| \__\ |__|  \__/        
                                                                              
                      - O R C A' S   B I G   F R I E N D -                    
                                      &                                       
                       - I N T E G R A L  F E E D E R -                       
                                                                              
 v1 FN, 2020, v2 2021                                                         
------------------------------------------------------------------------------


Reading SHARK input file /beegfs/scratch/ispackman/PFAS_EPR_calcs/benchmark/JChemEd_CF3_radical/CH3_radical_95.5_degrees_IN-PROGRESS/CH3_radical_95.5_degrees.SHARKINP.tmp ... ok
----------------------
SHARK INTEGRAL PACKAGE
----------------------

Number of atoms                             ...      4
Number of basis functions                   ...     64
Number of shells                            ...     28
Maximum angular momentum                    ...      3
Integral batch strategy                     ... SHARK/LIBINT Hybrid
RI-J (if used) integral strategy            ... SPLIT-RIJ (Revised 2003 algorithm where possible)
Printlevel                                  ...      1
Contraction scheme used                     ... SEGMENTED contraction
Coulomb Range Separation                    ... NOT USED
Exchange Range Separation                   ... Long Range
   Mu parameter                             ...  0.250000
   Scaling (regular/separated)              ...  0.195728  0.804272
Finite Nucleus Model                        ... NOT USED
Auxiliary Coulomb fitting basis             ... AVAILABLE
   # of basis functions in Aux-J            ...     82
   # of shells in Aux-J                     ...     30
   Maximum angular momentum in Aux-J        ...      4
Auxiliary J/K fitting basis                 ... NOT available
Auxiliary Correlation fitting basis         ... NOT available
Auxiliary 'external' fitting basis          ... NOT available
Integral threshold                          ...     2.500000e-11
Primitive cut-off                           ...     2.500000e-12
Primitive pair pre-selection threshold      ...     2.500000e-12

Calculating pre-screening integrals         ... done (  0.0 sec) Dimension = 28
Organizing shell pair data                  ... done (  0.0 sec)
Shell pair information
Total number of shell pairs                 ...       406
Shell pairs after pre-screening             ...       406
Total number of primitive shell pairs       ...       977
Primitive shell pairs kept                  ...       947
          la=0 lb=0:    120 shell pairs
          la=1 lb=0:    135 shell pairs
          la=1 lb=1:     45 shell pairs
          la=2 lb=0:     45 shell pairs
          la=2 lb=1:     27 shell pairs
          la=2 lb=2:      6 shell pairs
          la=3 lb=0:     15 shell pairs
          la=3 lb=1:      9 shell pairs
          la=3 lb=2:      3 shell pairs
          la=3 lb=3:      1 shell pairs

Calculating one electron integrals          ... done (  0.0 sec)
Calculating RI/J V-Matrix + Cholesky decomp.... done (  0.0 sec)
Calculating Nuclear repulsion               ... done (  0.0 sec) ENN=      9.812527927737 Eh

SHARK setup successfully completed in   0.3 seconds

Maximum memory used throughout the entire GTOINT-calculation: 14.0 MB


           ************************************************************
           *        Program running with 18 parallel MPI-processes    *
           *              working on a common directory               *
           ************************************************************
-------------------------------------------------------------------------------
                                 ORCA SCF
-------------------------------------------------------------------------------

------------
SCF SETTINGS
------------
Hamiltonian:
 Density Functional     Method          .... DFT(GTOs)
 Exchange Functional    Exchange        .... WB97X-D3
 Correlation Functional Correlation     .... WB97X-D3
 Gradients option       PostSCFGGA      .... off
 Hybrid DFT is turned on
   Fraction HF Exchange ScalHFX         ....  0.195728
   Scaling of DF-GGA-X  ScalDFX         ....  0.000000
   Scaling of DF-GGA-C  ScalDFC         ....  1.000000
   Scaling of DF-LDA-C  ScalLDAC        ....  1.000000
   Perturbative correction              ....  0.000000
   Density functional embedding theory  .... OFF
 Long-range corrected/Screened/Range-Separated Hybrid DFT is turned on
   Amount of maximum screened exact exchange              ....  0.804272
   Range separation parameter mu (erf(mu*r12)/r12)        ....  0.250000
 RI-approximation to the Coulomb term is turned on
   Number of AuxJ basis functions       .... 82
   RIJ-COSX (HFX calculated with COS-X)).... on


General Settings:
 Integral files         IntName         .... /beegfs/scratch/ispackman/PFAS_EPR_calcs/benchmark/JChemEd_CF3_radical/CH3_radical_95.5_degrees_IN-PROGRESS/CH3_radical_95.5_degrees
 Hartree-Fock type      HFTyp           .... UHF
 Total Charge           Charge          ....    0
 Multiplicity           Mult            ....    2
 Number of Electrons    NEL             ....    9
 Basis Dimension        Dim             ....   64
 Nuclear Repulsion      ENuc            ....      9.8125279277 Eh

Convergence Acceleration:
 DIIS                   CNVDIIS         .... on
   Start iteration      DIISMaxIt       ....    12
   Startup error        DIISStart       ....  0.200000
   # of expansion vecs  DIISMaxEq       ....     5
   Bias factor          DIISBfac        ....   1.050
   Max. coefficient     DIISMaxC        ....  10.000
 Trust-Rad. Augm. Hess. CNVTRAH         .... auto
   Auto Start mean grad. ratio tolernc. ....  1.125000
   Auto Start start iteration           ....    20
   Auto Start num. interpolation iter.  ....    10
   Max. Number of Micro iterations      ....    16
   Max. Number of Macro iterations      .... Maxiter - #DIIS iter
   Number of Davidson start vectors     ....     2
   Converg. threshold I  (grad. norm)   ....   1.000e-05
   Converg. threshold II (energy diff.) ....   1.000e-08
   Grad. Scal. Fac. for Micro threshold ....   0.100
   Minimum threshold for Micro iter.    ....   0.010
   NR start threshold (gradient norm)   ....   0.001
   Initial trust radius                 ....   0.400
   Minimum AH scaling param. (alpha)    ....   1.000
   Maximum AH scaling param. (alpha)    .... 1000.000
   Orbital update algorithm             .... Taylor
   White noise on init. David. guess    .... on
   Maximum white noise                  ....   0.010
   Quad. conv. algorithm                .... NR
 SOSCF                  CNVSOSCF        .... off
 Level Shifting         CNVShift        .... on
   Level shift para.    LevelShift      ....    0.2500
   Turn off err/grad.   ShiftErr        ....    0.0010
 Zerner damping         CNVZerner       .... off
 Static damping         CNVDamp         .... on
   Fraction old density DampFac         ....    0.7000
   Max. Damping (<1)    DampMax         ....    0.9800
   Min. Damping (>=0)   DampMin         ....    0.0000
   Turn off err/grad.   DampErr         ....    0.1000
 Fernandez-Rico         CNVRico         .... off

SCF Procedure:
 Maximum # iterations   MaxIter         ....   125
 SCF integral mode      SCFMode         .... Direct
   Integral package                     .... SHARK and LIBINT hybrid scheme
 Reset frequency        DirectResetFreq ....    20
 Integral Threshold     Thresh          ....  2.500e-11 Eh
 Primitive CutOff       TCut            ....  2.500e-12 Eh

Convergence Tolerance:
 Convergence Check Mode ConvCheckMode   .... Total+1el-Energy
 Convergence forced     ConvForced      .... 0
 Energy Change          TolE            ....  1.000e-08 Eh
 1-El. energy change                    ....  1.000e-05 Eh
 DIIS Error             TolErr          ....  5.000e-07


Diagonalization of the overlap matrix:
Smallest eigenvalue                        ... 3.420e-05
Time for diagonalization                   ...    0.002 sec
Threshold for overlap eigenvalues          ... 1.000e-08
Number of eigenvalues below threshold      ... 0
Time for construction of square roots      ...    0.013 sec
Total time needed                          ...    0.016 sec

Time for model grid setup =    0.043 sec

------------------------------
INITIAL GUESS: MODEL POTENTIAL
------------------------------
Loading Hartree-Fock densities                     ... done
Calculating cut-offs                               ... done
Initializing the effective Hamiltonian             ... done
Setting up the integral package (SHARK)            ... done
Starting the Coulomb interaction                   ... done (   0.1 sec)
Reading the grid                                   ... done
Mapping shells                                     ... done
Starting the XC term evaluation                    ... done (   0.0 sec)
  promolecular density results
     # of electrons  =      8.997977456
     EX              =     -5.938671879
     EC              =     -0.260882842
     EX+EC           =     -6.199554721
Transforming the Hamiltonian                       ... done (   0.0 sec)
Diagonalizing the Hamiltonian                      ... done (   0.0 sec)
Back transforming the eigenvectors                 ... done (   0.0 sec)
Now organizing SCF variables                       ... done
                      ------------------
                      INITIAL GUESS DONE (   0.2 sec)
                      ------------------
-------------------
DFT GRID GENERATION
-------------------

General Integration Accuracy     IntAcc      ... 4.388
Radial Grid Type                 RadialGrid  ... OptM3 with GC (2021)
Angular Grid (max. ang.)         AngularGrid ... 4 (Lebedev-302)
Angular grid pruning method      GridPruning ... 4 (adaptive)
Weight generation scheme         WeightScheme... Becke
Basis function cutoff            BFCut       ... 1.0000e-11
Integration weight cutoff        WCut        ... 1.0000e-14
Angular grids for H and He will be reduced by one unit
Partially contracted basis set               ... off
Rotationally invariant grid construction     ... off

Total number of grid points                  ...    17035
Total number of batches                      ...      268
Average number of points per batch           ...       63
Average number of grid points per atom       ...     4259
Time for grid setup =    0.096 sec

--------------------
COSX GRID GENERATION
--------------------

GRIDX 1
-------
General Integration Accuracy     IntAcc      ... 3.816
Radial Grid Type                 RadialGrid  ... OptM3 with GC (2021)
Angular Grid (max. ang.)         AngularGrid ... 1 (Lebedev-50)
Angular grid pruning method      GridPruning ... 4 (adaptive)
Weight generation scheme         WeightScheme... Becke
Basis function cutoff            BFCut       ... 1.0000e-11
Integration weight cutoff        WCut        ... 1.0000e-14
Angular grids for H and He will be reduced by one unit
Partially contracted basis set               ... on
Rotationally invariant grid construction     ... off

Total number of grid points                  ...     2144
Total number of batches                      ...       36
Average number of points per batch           ...       59
Average number of grid points per atom       ...      536
UseSFitting                                  ... on

GRIDX 2
-------
General Integration Accuracy     IntAcc      ... 4.020
Radial Grid Type                 RadialGrid  ... OptM3 with GC (2021)
Angular Grid (max. ang.)         AngularGrid ... 2 (Lebedev-110)
Angular grid pruning method      GridPruning ... 4 (adaptive)
Weight generation scheme         WeightScheme... Becke
Basis function cutoff            BFCut       ... 1.0000e-11
Integration weight cutoff        WCut        ... 1.0000e-14
Angular grids for H and He will be reduced by one unit
Partially contracted basis set               ... on
Rotationally invariant grid construction     ... off

Total number of grid points                  ...     5056
Total number of batches                      ...       81
Average number of points per batch           ...       62
Average number of grid points per atom       ...     1264
UseSFitting                                  ... on

GRIDX 3
-------
General Integration Accuracy     IntAcc      ... 4.338
Radial Grid Type                 RadialGrid  ... OptM3 with GC (2021)
Angular Grid (max. ang.)         AngularGrid ... 3 (Lebedev-194)
Angular grid pruning method      GridPruning ... 4 (adaptive)
Weight generation scheme         WeightScheme... Becke
Basis function cutoff            BFCut       ... 1.0000e-11
Integration weight cutoff        WCut        ... 1.0000e-14
Angular grids for H and He will be reduced by one unit
Partially contracted basis set               ... on
Rotationally invariant grid construction     ... off

Total number of grid points                  ...    11716
Total number of batches                      ...      185
Average number of points per batch           ...       63
Average number of grid points per atom       ...     2929
UseSFitting                                  ... on

Time for X-Grid setup             =    0.244 sec

--------------
SCF ITERATIONS
--------------
ITER       Energy         Delta-E        Max-DP      RMS-DP      [F,P]     Damp
               ***  Starting incremental Fock matrix formation  ***
  0    -39.7581423553   0.000000000000 0.07063695  0.00131338  0.0750479 0.7000
  1    -39.7719116939  -0.013769338534 0.06315657  0.00114049  0.0483447 0.7000
                               ***Turning on DIIS***
  2    -39.7797793966  -0.007867702758 0.12834747  0.00242704  0.0281015 0.0000
  3    -39.7936359665  -0.013856569891 0.05016018  0.00088780  0.0191034 0.0000
  4    -39.7951289311  -0.001492964568 0.01535628  0.00026167  0.0031943 0.0000
  5    -39.7951968660  -0.000067934940 0.01380671  0.00022439  0.0016893 0.0000
  6    -39.7952208621  -0.000023996063 0.01496421  0.00023272  0.0006363 0.0000
               *** Restarting incremental Fock matrix formation ***
                                   *** Resetting DIIS ***
  7    -39.7952262981  -0.000005435979 0.00119805  0.00001867  0.0000867 0.0000
  8    -39.7952264784  -0.000000180293 0.00083550  0.00001305  0.0000472 0.0000
  9    -39.7952265373  -0.000000058936 0.00001961  0.00000085  0.0000201 0.0000
 10    -39.7952265409  -0.000000003638 0.00001177  0.00000037  0.0000074 0.0000
                 **** Energy Check signals convergence ****

               *****************************************************
               *                     SUCCESS                       *
               *           SCF CONVERGED AFTER  11 CYCLES          *
               *****************************************************

Old exchange energy                            =     -2.172739987 Eh
New exchange energy                            =     -2.172743266 Eh
Exchange energy change after final integration =     -0.000003279 Eh
Total energy after final integration           =    -39.795229820 Eh
Final COS-X integration done in                =     0.124 sec

----------------
TOTAL SCF ENERGY
----------------

Total Energy       :          -39.79522982 Eh           -1082.88326 eV

Components:
Nuclear Repulsion  :            9.81252793 Eh             267.01246 eV
Electronic Energy  :          -49.60775775 Eh           -1349.89572 eV
One Electron Energy:          -71.83745687 Eh           -1954.79658 eV
Two Electron Energy:           22.22969912 Eh             604.90087 eV
Max COSX asymmetry :            0.00000010 Eh               0.00000 eV

Virial components:
Potential Energy   :          -79.46523969 Eh           -2162.35910 eV
Kinetic Energy     :           39.67000987 Eh            1079.47585 eV
Virial Ratio       :            2.00315654


DFT components:
N(Alpha)           :        4.999997662632 electrons
N(Beta)            :        4.000000232893 electrons
N(Total)           :        8.999997895526 electrons
E(XC)              :       -4.316623710423 Eh       
DFET-embed. en.    :        0.000000000000 Eh       

---------------
SCF CONVERGENCE
---------------

  Last Energy change         ...   -3.3401e-10  Tolerance :   1.0000e-08
  Last MAX-Density change    ...    0.0000e+00  Tolerance :   1.0000e-07
  Last RMS-Density change    ...    0.0000e+00  Tolerance :   5.0000e-09
  Last DIIS Error            ...    1.3548e-06  Tolerance :   5.0000e-07

             **** THE GBW FILE WAS UPDATED (/beegfs/scratch/ispackman/PFAS_EPR_calcs/benchmark/JChemEd_CF3_radical/CH3_radical_95.5_degrees_IN-PROGRESS/CH3_radical_95.5_degrees.gbw) ****
             **** DENSITY /beegfs/scratch/ispackman/PFAS_EPR_calcs/benchmark/JChemEd_CF3_radical/CH3_radical_95.5_degrees_IN-PROGRESS/CH3_radical_95.5_degrees.scfp WAS UPDATED ****
             **** ENERGY FILE WAS UPDATED (/beegfs/scratch/ispackman/PFAS_EPR_calcs/benchmark/JChemEd_CF3_radical/CH3_radical_95.5_degrees_IN-PROGRESS/CH3_radical_95.5_degrees.en.tmp) ****
----------------------
UHF SPIN CONTAMINATION
----------------------

Warning: in a DFT calculation there is little theoretical justification to 
         calculate <S**2> as in Hartree-Fock theory. We will do it anyways
         but you should keep in mind that the values have only limited relevance

Expectation value of <S**2>     :     0.753223
Ideal value S*(S+1) for S=0.5   :     0.750000
Deviation                       :     0.003223

             **** THE GBW FILE WAS UPDATED (/beegfs/scratch/ispackman/PFAS_EPR_calcs/benchmark/JChemEd_CF3_radical/CH3_radical_95.5_degrees_IN-PROGRESS/CH3_radical_95.5_degrees.gbw) ****
             **** DENSITY /beegfs/scratch/ispackman/PFAS_EPR_calcs/benchmark/JChemEd_CF3_radical/CH3_radical_95.5_degrees_IN-PROGRESS/CH3_radical_95.5_degrees.scfp WAS UPDATED ****
----------------
ORBITAL ENERGIES
----------------
                 SPIN UP ORBITALS
  NO   OCC          E(Eh)            E(eV) 
   0   1.0000     -10.297240      -280.2022 
   1   1.0000      -0.826296       -22.4846 
   2   1.0000      -0.487474       -13.2648 
   3   1.0000      -0.487462       -13.2645 
   4   1.0000      -0.399379       -10.8677 
   5   0.0000       0.074262         2.0208 
   6   0.0000       0.161533         4.3955 
   7   0.0000       0.161539         4.3957 
   8   0.0000       0.168273         4.5789 
   9   0.0000       0.193600         5.2681 
  10   0.0000       0.193602         5.2682 
  11   0.0000       0.241229         6.5642 
  12   0.0000       0.252969         6.8836 
  13   0.0000       0.252977         6.8839 
  14   0.0000       0.315315         8.5802 
  15   0.0000       0.348784         9.4909 
  16   0.0000       0.348789         9.4910 
  17   0.0000       0.349569         9.5123 
  18   0.0000       0.382329        10.4037 
  19   0.0000       0.382816        10.4169 
  20   0.0000       0.382821        10.4171 
  21   0.0000       0.394130        10.7248 
  22   0.0000       0.394141        10.7251 
  23   0.0000       0.528309        14.3760 
  24   0.0000       0.563346        15.3294 
  25   0.0000       0.563354        15.3296 
  26   0.0000       0.680606        18.5202 
  27   0.0000       0.785179        21.3658 
  28   0.0000       0.786102        21.3909 
  29   0.0000       0.786110        21.3911 
  30   0.0000       0.867324        23.6011 
  31   0.0000       0.867342        23.6016 
  32   0.0000       0.952932        25.9306 
  33   0.0000       1.162239        31.6261 
  34   0.0000       1.162274        31.6271 
  35   0.0000       1.646496        44.8034 
  36   0.0000       1.748565        47.5809 
  37   0.0000       1.748581        47.5813 
  38   0.0000       1.804597        49.1056 
  39   0.0000       1.840784        50.0903 
  40   0.0000       1.939501        52.7765 
  41   0.0000       1.939543        52.7776 
  42   0.0000       2.186473        59.4970 
  43   0.0000       2.186491        59.4974 
  44   0.0000       2.211233        60.1707 
  45   0.0000       2.546454        69.2925 
  46   0.0000       2.642392        71.9031 
  47   0.0000       2.642522        71.9067 
  48   0.0000       2.731690        74.3331 
  49   0.0000       2.731745        74.3345 
  50   0.0000       2.766713        75.2861 
  51   0.0000       3.136370        85.3450 
  52   0.0000       3.154089        85.8271 
  53   0.0000       3.154196        85.8300 
  54   0.0000       3.241393        88.2028 
  55   0.0000       3.302986        89.8788 
  56   0.0000       3.361101        91.4602 
  57   0.0000       3.361158        91.4618 
  58   0.0000       3.729546       101.4861 
  59   0.0000       3.729585       101.4872 
  60   0.0000       4.258482       115.8792 
  61   0.0000       4.489444       122.1640 
  62   0.0000       4.489454       122.1643 
  63   0.0000      22.178582       603.5099 

                 SPIN DOWN ORBITALS
  NO   OCC          E(Eh)            E(eV) 
   0   1.0000     -10.285287      -279.8769 
   1   1.0000      -0.792499       -21.5650 
   2   1.0000      -0.471448       -12.8288 
   3   1.0000      -0.471436       -12.8284 
   4   0.0000      -0.043998        -1.1973 
   5   0.0000       0.082323         2.2401 
   6   0.0000       0.166715         4.5366 
   7   0.0000       0.166717         4.5366 
   8   0.0000       0.201460         5.4820 
   9   0.0000       0.201461         5.4820 
  10   0.0000       0.203159         5.5282 
  11   0.0000       0.255908         6.9636 
  12   0.0000       0.256364         6.9760 
  13   0.0000       0.256367         6.9761 
  14   0.0000       0.322413         8.7733 
  15   0.0000       0.365938         9.9577 
  16   0.0000       0.365944         9.9579 
  17   0.0000       0.367675        10.0049 
  18   0.0000       0.382105        10.3976 
  19   0.0000       0.389665        10.6033 
  20   0.0000       0.389669        10.6034 
  21   0.0000       0.402207        10.9446 
  22   0.0000       0.402209        10.9447 
  23   0.0000       0.566681        15.4202 
  24   0.0000       0.567800        15.4506 
  25   0.0000       0.567802        15.4507 
  26   0.0000       0.688896        18.7458 
  27   0.0000       0.792316        21.5600 
  28   0.0000       0.799162        21.7463 
  29   0.0000       0.799179        21.7468 
  30   0.0000       0.886210        24.1150 
  31   0.0000       0.886245        24.1160 
  32   0.0000       0.969822        26.3902 
  33   0.0000       1.173752        31.9394 
  34   0.0000       1.173759        31.9396 
  35   0.0000       1.717465        46.7346 
  36   0.0000       1.758784        47.8589 
  37   0.0000       1.758799        47.8593 
  38   0.0000       1.806002        49.1438 
  39   0.0000       1.854391        50.4605 
  40   0.0000       1.954500        53.1847 
  41   0.0000       1.954503        53.1847 
  42   0.0000       2.196523        59.7704 
  43   0.0000       2.196539        59.7709 
  44   0.0000       2.214812        60.2681 
  45   0.0000       2.561074        69.6904 
  46   0.0000       2.650747        72.1305 
  47   0.0000       2.650771        72.1312 
  48   0.0000       2.757766        75.0426 
  49   0.0000       2.757795        75.0434 
  50   0.0000       2.789273        75.9000 
  51   0.0000       3.189145        86.7810 
  52   0.0000       3.200508        87.0903 
  53   0.0000       3.200582        87.0923 
  54   0.0000       3.264300        88.8261 
  55   0.0000       3.321807        90.3910 
  56   0.0000       3.398979        92.4909 
  57   0.0000       3.399003        92.4916 
  58   0.0000       3.774455       102.7081 
  59   0.0000       3.774496       102.7092 
  60   0.0000       4.281238       116.4984 
  61   0.0000       4.512151       122.7819 
  62   0.0000       4.512231       122.7841 
  63   0.0000      22.198650       604.0560 

                    ********************************
                    * MULLIKEN POPULATION ANALYSIS *
                    ********************************

--------------------------------------------
MULLIKEN ATOMIC CHARGES AND SPIN POPULATIONS
--------------------------------------------
   0 C :   -0.693096    0.890390
   1 H :    0.230760    0.036595
   2 H :    0.231167    0.036508
   3 H :    0.231168    0.036507
Sum of atomic charges         :    0.0000000
Sum of atomic spin populations:    1.0000000

-----------------------------------------------------
MULLIKEN REDUCED ORBITAL CHARGES AND SPIN POPULATIONS
-----------------------------------------------------
CHARGE
  0 C s       :     3.304562  s :     3.304562
      pz      :     0.969403  p :     3.331424
      px      :     1.181004
      py      :     1.181017
      dz2     :     0.000153  d :     0.056568
      dxz     :     0.021012
      dyz     :     0.021014
      dx2y2   :     0.007188
      dxy     :     0.007200
      f0      :     0.000232  f :     0.000542
      f+1     :     0.000062
      f-1     :     0.000061
      f+2     :    -0.000043
      f-2     :    -0.000041
      f+3     :     0.000270
      f-3     :     0.000000
  1 H s       :     0.728419  s :     0.728419
      pz      :     0.022469  p :     0.040821
      px      :     0.011882
      py      :     0.006469
  2 H s       :     0.728132  s :     0.728132
      pz      :     0.022441  p :     0.040701
      px      :     0.007785
      py      :     0.010476
  3 H s       :     0.728130  s :     0.728130
      pz      :     0.022441  p :     0.040701
      px      :     0.007785
      py      :     0.010476

SPIN
  0 C s       :     0.037385  s :     0.037385
      pz      :     0.855028  p :     0.865273
      px      :     0.005071
      py      :     0.005174
      dz2     :    -0.000128  d :    -0.011901
      dxz     :    -0.005420
      dyz     :    -0.005419
      dx2y2   :    -0.000467
      dxy     :    -0.000466
      f0      :    -0.000466  f :    -0.000368
      f+1     :     0.000110
      f-1     :     0.000110
      f+2     :    -0.000013
      f-2     :    -0.000012
      f+3     :    -0.000096
      f-3     :     0.000000
  1 H s       :     0.015559  s :     0.015559
      pz      :     0.019090  p :     0.021036
      px      :    -0.000815
      py      :     0.002761
  2 H s       :     0.015509  s :     0.015509
      pz      :     0.019058  p :     0.021000
      px      :     0.001859
      py      :     0.000083
  3 H s       :     0.015508  s :     0.015508
      pz      :     0.019058  p :     0.020999
      px      :     0.001859
      py      :     0.000083


                     *******************************
                     * LOEWDIN POPULATION ANALYSIS *
                     *******************************

-------------------------------------------
LOEWDIN ATOMIC CHARGES AND SPIN POPULATIONS
-------------------------------------------
   0 C :    0.054029    0.837811
   1 H :   -0.018026    0.054066
   2 H :   -0.018001    0.054062
   3 H :   -0.018001    0.054061

----------------------------------------------------
LOEWDIN REDUCED ORBITAL CHARGES AND SPIN POPULATIONS
----------------------------------------------------
CHARGE
  0 C s       :     2.901080  s :     2.901080
      pz      :     0.762786  p :     2.910652
      px      :     1.073935
      py      :     1.073931
      dz2     :     0.002228  d :     0.122282
      dxz     :     0.034704
      dyz     :     0.034705
      dx2y2   :     0.025320
      dxy     :     0.025325
      f0      :     0.001387  f :     0.011958
      f+1     :     0.000361
      f-1     :     0.000360
      f+2     :     0.003947
      f-2     :     0.003948
      f+3     :     0.001956
      f-3     :     0.000000
  1 H s       :     0.743595  s :     0.743595
      pz      :     0.072664  p :     0.274431
      px      :     0.121069
      py      :     0.080698
  2 H s       :     0.743587  s :     0.743587
      pz      :     0.072666  p :     0.274415
      px      :     0.090782
      py      :     0.110967
  3 H s       :     0.743587  s :     0.743587
      pz      :     0.072666  p :     0.274415
      px      :     0.090782
      py      :     0.110967

SPIN
  0 C s       :     0.134091  s :     0.134091
      pz      :     0.671038  p :     0.715413
      px      :     0.022188
      py      :     0.022187
      dz2     :     0.000995  d :    -0.011612
      dxz     :    -0.004825
      dyz     :    -0.004829
      dx2y2   :    -0.001477
      dxy     :    -0.001476
      f0      :    -0.000168  f :    -0.000082
      f+1     :     0.000121
      f-1     :     0.000121
      f+2     :    -0.000224
      f-2     :    -0.000223
      f+3     :     0.000291
      f-3     :     0.000000
  1 H s       :     0.000570  s :     0.000570
      pz      :     0.051756  p :     0.053497
      px      :     0.002866
      py      :    -0.001125
  2 H s       :     0.000569  s :     0.000569
      pz      :     0.051748  p :     0.053493
      px      :    -0.000129
      py      :     0.001874
  3 H s       :     0.000569  s :     0.000569
      pz      :     0.051748  p :     0.053493
      px      :    -0.000129
      py      :     0.001874


                      *****************************
                      * MAYER POPULATION ANALYSIS *
                      *****************************

  NA   - Mulliken gross atomic population
  ZA   - Total nuclear charge
  QA   - Mulliken gross atomic charge
  VA   - Mayer's total valence
  BVA  - Mayer's bonded valence
  FA   - Mayer's free valence

  ATOM       NA         ZA         QA         VA         BVA        FA
  0 C      6.6931     6.0000    -0.6931     3.8406     3.0779     0.7627
  1 H      0.7692     1.0000     0.2308     1.0013     0.9998     0.0015
  2 H      0.7688     1.0000     0.2312     1.0007     0.9993     0.0015
  3 H      0.7688     1.0000     0.2312     1.0007     0.9993     0.0015

  Mayer bond orders larger than 0.100000
B(  0-C ,  1-H ) :   1.0263 B(  0-C ,  2-H ) :   1.0258 B(  0-C ,  3-H ) :   1.0258 


-------
TIMINGS
-------

Total SCF time: 0 days 0 hours 0 min 7 sec 

Total time                  ....       7.867 sec
Sum of individual times     ....       7.207 sec  ( 91.6%)

Fock matrix formation       ....       6.061 sec  ( 77.0%)
  Split-RI-J                ....       0.842 sec  ( 13.9% of F)
  Chain of spheres X        ....       1.349 sec  ( 22.3% of F)
  XC integration            ....       1.259 sec  ( 20.8% of F)
    Basis function eval.    ....       0.051 sec  (  4.0% of XC)
    Density eval.           ....       0.050 sec  (  4.0% of XC)
    XC-Functional eval.     ....       0.053 sec  (  4.2% of XC)
    XC-Potential eval.      ....       0.070 sec  (  5.6% of XC)
Diagonalization             ....       0.153 sec  (  2.0%)
Density matrix formation    ....       0.010 sec  (  0.1%)
Population analysis         ....       0.152 sec  (  1.9%)
Initial guess               ....       0.108 sec  (  1.4%)
Orbital Transformation      ....       0.000 sec  (  0.0%)
Orbital Orthonormalization  ....       0.000 sec  (  0.0%)
DIIS solution               ....       0.338 sec  (  4.3%)
Grid generation             ....       0.384 sec  (  4.9%)

Maximum memory used throughout the entire SCF-calculation: 58.5 MB


-------------------------------------------------------------------------------
                          DFT DISPERSION CORRECTION                            
                                                                               
                              DFTD3 V3.1  Rev 1                                
                              USING zero damping                               
-------------------------------------------------------------------------------
The omegaB97X-D3 functional is recognized. Fit by Chai et al.
Active option DFTDOPT                   ...         3   

molecular C6(AA) [au] = 106.955581 


            DFT-D V3
 parameters
 s6 scaling factor         :     1.0000 
 rs6 scaling factor        :     1.2810 
 s8 scaling factor         :     1.0000 
 rs8 scaling factor        :     1.0940 
 Damping factor alpha6     :    14.0000 
 Damping factor alpha8     :    16.0000 
 ad hoc parameters k1-k3   :    16.0000     1.3333    -4.0000 

 Edisp/kcal,au: -0.003372391753  -0.000005374248 
 E6   /kcal   :  -0.000523810 
 E8   /kcal   :  -0.002848582 
 % E8         :  84.467699477 

-------------------------   ----------------
Dispersion correction           -0.000005374
-------------------------   ----------------


-------------------------   --------------------
FINAL SINGLE POINT ENERGY       -39.795235194286
-------------------------   --------------------



           ************************************************************
           *        Program running with 18 parallel MPI-processes    *
           *              working on a common directory               *
           ************************************************************
------------------------------------------------------------------------------
                         ORCA SCF GRADIENT CALCULATION
------------------------------------------------------------------------------

 ... reading COSX grid (gridx3)
Gradient of the Kohn-Sham DFT energy:
Kohn-Sham wavefunction type      ... UKS
Hartree-Fock exchange scaling    ...    0.196
Number of operators              ...    2
Number of atoms                  ...    4
Basis set dimensions             ...   64
Integral neglect threshold       ... 2.5e-11
Integral primitive cutoff        ... 2.5e-12
SHARK Integral package           ... ON

Nuc. rep. gradient       (SHARK) ... done (  0.0 sec)
HCore & Overlap gradient (SHARK) ... done (  0.0 sec)
RI-J gradient            (SHARK) ... done (  0.1 sec)
COSX-gradient                    ... done (  0.1 sec)
Exchange-correlation gradient    ... done
Dispersion correction            ... done

------------------
CARTESIAN GRADIENT
------------------

WARNING: THERE ARE 3 CONSTRAINED CARTESIAN COORDINATES
   1   C   :   -0.000078955   -0.000000029    0.077145298
   2   H   :   -0.032467436    0.000000009   -0.025702477
   3   H   :    0.016257806   -0.028080994   -0.025698025
   4   H   :    0.016257820    0.028080977   -0.025698021

Difference to translation invariance:
           :   -0.0000307646   -0.0000000373    0.0000467755

Difference to rotation invariance:
           :   -0.0000000155   -0.0000432822    0.0000000520

Norm of the cartesian gradient     ...    0.1053216420
RMS gradient                       ...    0.0304037392
MAX gradient                       ...    0.0771452985

-------
TIMINGS
-------

Total SCF gradient time            ...        0.612 sec

One electron gradient       ....       0.006 sec  (  1.1%)
RI-J Coulomb gradient       ....       0.130 sec  ( 21.3%)
COSX gradient               ....       0.117 sec  ( 19.2%)
XC gradient                 ....       0.066 sec  ( 10.7%)

Maximum memory used throughout the entire SCFGRAD-calculation: 33.6 MB
------------------------------------------------------------------------------
                         ORCA GEOMETRY RELAXATION STEP
------------------------------------------------------------------------------

Reading the OPT-File                    .... done
Getting information on internals        .... done
Copying old internal coords+grads       .... done
Making the new internal coordinates     .... (new redundants).... done
Validating the new internal coordinates .... (new redundants).... done
Calculating the B-matrix                .... done
Calculating the G,G- and P matrices     .... done
Transforming gradient to internals      .... done
Projecting the internal gradient        .... done
Number of atoms                         ....   4
Number of internal coordinates          ....   7
Current Energy                          ....   -39.795235194 Eh
Current gradient norm                   ....     0.105321642 Eh/bohr
Maximum allowed component of the step   ....  0.300
Current trust radius                    ....  0.300
Evaluating the initial hessian          ....  (Almloef) done
Projecting the Hessian                  .... done
Forming the augmented Hessian           .... done
Diagonalizing the augmented Hessian     .... done
Last element of RFO vector              ....  0.997800094
Lowest eigenvalues of augmented Hessian:
 -0.001656410  0.373574723  0.373574723  0.375231133 1000.000000000
Length of the computed step             ....  0.066440748
The final length of the internal step   ....  0.066440748
Converting the step to cartesian space:
 Initial RMS(Int)=    0.0251122422
Transforming coordinates:
 Iter   0:  RMS(Cart)=    0.0171326421 RMS(Int)=    0.0251122422
 Iter   1:  RMS(Cart)=    0.0000000000 RMS(Int)=    0.0000000000
Imposing constraints:
 Iter   0:  RMS(Cart)=    0.0000000015 RMS(Int)=    0.0000000020
CONVERGED
done
Storing new coordinates                 .... done

                                .--------------------.
          ----------------------|Geometry convergence|-------------------------
          Item                value                   Tolerance       Converged
          ---------------------------------------------------------------------
          RMS gradient        0.0094228951            0.0001000000      NO
          MAX gradient        0.0143964197            0.0003000000      NO
          RMS step            0.0251122422            0.0020000000      NO
          MAX step            0.0383668049            0.0040000000      NO
          ........................................................
          Max(Bonds)      0.0203      Max(Angles)    0.00
          Max(Dihed)        0.00      Max(Improp)    0.00
          ---------------------------------------------------------------------

The optimization has not yet converged - more geometry cycles are needed


    ---------------------------------------------------------------------------
                         Redundant Internal Coordinates
                            (Angstroem and degrees)

        Definition                    Value    dE/dq     Step     New-Value
    ----------------------------------------------------------------------------
     1. B(H   1,C   0)                1.0800 -0.014388  0.0203    1.1003   
     2. B(H   2,C   0)                1.0800 -0.014396  0.0203    1.1003   
     3. B(H   3,C   0)                1.0800 -0.014396  0.0203    1.1003   
     4. A(H   2,C   0,H   3)           95.50 -0.055692   -0.00     95.50 C 
     5. A(H   1,C   0,H   2)           95.50 -0.026429    0.00     95.50 C 
     6. A(H   1,C   0,H   3)           95.50 -0.026429    0.00     95.50 C 
     7. I(H   1,H   3,H   2,C   0)     81.80  0.043945    0.00     81.80   
    ----------------------------------------------------------------------------

         *************************************************************
         *                GEOMETRY OPTIMIZATION CYCLE   2            *
         *************************************************************
---------------------------------
CARTESIAN COORDINATES (ANGSTROEM)
---------------------------------
  C      0.000004    0.000000    0.007902
  H      0.940454    0.000000   -0.563231
  H     -0.470229    0.814464   -0.563233
  H     -0.470229   -0.814464   -0.563233

----------------------------
CARTESIAN COORDINATES (A.U.)
----------------------------
  NO LB      ZA    FRAG     MASS         X           Y           Z
   0 C     6.0000    0    12.011    0.000007    0.000000    0.014934
   1 H     1.0000    0     1.008    1.777201    0.000000   -1.064352
   2 H     1.0000    0     1.008   -0.888604    1.539114   -1.064356
   3 H     1.0000    0     1.008   -0.888604   -1.539114   -1.064356

--------------------------------
INTERNAL COORDINATES (ANGSTROEM)
--------------------------------
 C      0   0   0     0.000000000000     0.00000000     0.00000000
 H      1   0   0     1.100291390759     0.00000000     0.00000000
 H      1   2   0     1.100302820580    95.50000011     0.00000000
 H      1   2   3     1.100302838723    95.50000011    96.08512842

---------------------------
INTERNAL COORDINATES (A.U.)
---------------------------
 C      0   0   0     0.000000000000     0.00000000     0.00000000
 H      1   0   0     2.079249396045     0.00000000     0.00000000
 H      1   2   0     2.079270995278    95.50000011     0.00000000
 H      1   2   3     2.079271029563    95.50000011    96.08512842



           ************************************************************
           *        Program running with 18 parallel MPI-processes    *
           *              working on a common directory               *
           ************************************************************
------------------------------------------------------------------------------
                   ___                                                        
                  /   \      - P O W E R E D   B Y -                         
                 /     \                                                     
                 |  |  |   _    _      __       _____    __    __             
                 |  |  |  | |  | |    /  \     |  _  \  |  |  /  |          
                  \  \/   | |  | |   /    \    | | | |  |  | /  /          
                 / \  \   | |__| |  /  /\  \   | |_| |  |  |/  /          
                |  |  |   |  __  | /  /__\  \  |    /   |      \           
                |  |  |   | |  | | |   __   |  |    \   |  |\   \          
                \     /   | |  | | |  |  |  |  | |\  \  |  | \   \       
                 \___/    |_|  |_| |__|  |__|  |_| \__\ |__|  \__/        
                                                                              
                      - O R C A' S   B I G   F R I E N D -                    
                                      &                                       
                       - I N T E G R A L  F E E D E R -                       
                                                                              
 v1 FN, 2020, v2 2021                                                         
------------------------------------------------------------------------------


Reading SHARK input file /beegfs/scratch/ispackman/PFAS_EPR_calcs/benchmark/JChemEd_CF3_radical/CH3_radical_95.5_degrees_IN-PROGRESS/CH3_radical_95.5_degrees.SHARKINP.tmp ... ok
----------------------
SHARK INTEGRAL PACKAGE
----------------------

Number of atoms                             ...      4
Number of basis functions                   ...     64
Number of shells                            ...     28
Maximum angular momentum                    ...      3
Integral batch strategy                     ... SHARK/LIBINT Hybrid
RI-J (if used) integral strategy            ... SPLIT-RIJ (Revised 2003 algorithm where possible)
Printlevel                                  ...      1
Contraction scheme used                     ... SEGMENTED contraction
Coulomb Range Separation                    ... NOT USED
Exchange Range Separation                   ... Long Range
   Mu parameter                             ...  0.250000
   Scaling (regular/separated)              ...  0.195728  0.804272
Finite Nucleus Model                        ... NOT USED
Auxiliary Coulomb fitting basis             ... AVAILABLE
   # of basis functions in Aux-J            ...     82
   # of shells in Aux-J                     ...     30
   Maximum angular momentum in Aux-J        ...      4
Auxiliary J/K fitting basis                 ... NOT available
Auxiliary Correlation fitting basis         ... NOT available
Auxiliary 'external' fitting basis          ... NOT available
Integral threshold                          ...     2.500000e-11
Primitive cut-off                           ...     2.500000e-12
Primitive pair pre-selection threshold      ...     2.500000e-12

Calculating pre-screening integrals         ... done (  0.0 sec) Dimension = 28
Organizing shell pair data                  ... done (  0.0 sec)
Shell pair information
Total number of shell pairs                 ...       406
Shell pairs after pre-screening             ...       406
Total number of primitive shell pairs       ...       977
Primitive shell pairs kept                  ...       947
          la=0 lb=0:    120 shell pairs
          la=1 lb=0:    135 shell pairs
          la=1 lb=1:     45 shell pairs
          la=2 lb=0:     45 shell pairs
          la=2 lb=1:     27 shell pairs
          la=2 lb=2:      6 shell pairs
          la=3 lb=0:     15 shell pairs
          la=3 lb=1:      9 shell pairs
          la=3 lb=2:      3 shell pairs
          la=3 lb=3:      1 shell pairs

Calculating one electron integrals          ... done (  0.0 sec)
Calculating RI/J V-Matrix + Cholesky decomp.... done (  0.0 sec)
Calculating Nuclear repulsion               ... done (  0.0 sec) ENN=      9.631500165418 Eh

SHARK setup successfully completed in   0.2 seconds

Maximum memory used throughout the entire GTOINT-calculation: 14.0 MB


           ************************************************************
           *        Program running with 18 parallel MPI-processes    *
           *              working on a common directory               *
           ************************************************************

Diagonalization of the overlap matrix:
Smallest eigenvalue                        ... 3.989e-05
Time for diagonalization                   ...    0.002 sec
Threshold for overlap eigenvalues          ... 1.000e-08
Number of eigenvalues below threshold      ... 0
Time for construction of square roots      ...    0.012 sec
Total time needed                          ...    0.016 sec

-------------------
DFT GRID GENERATION
-------------------

General Integration Accuracy     IntAcc      ... 4.388
Radial Grid Type                 RadialGrid  ... OptM3 with GC (2021)
Angular Grid (max. ang.)         AngularGrid ... 4 (Lebedev-302)
Angular grid pruning method      GridPruning ... 4 (adaptive)
Weight generation scheme         WeightScheme... Becke
Basis function cutoff            BFCut       ... 1.0000e-11
Integration weight cutoff        WCut        ... 1.0000e-14
Angular grids for H and He will be reduced by one unit
Partially contracted basis set               ... off
Rotationally invariant grid construction     ... off

Total number of grid points                  ...    17038
Total number of batches                      ...      268
Average number of points per batch           ...       63
Average number of grid points per atom       ...     4260
Time for grid setup =    0.098 sec

--------------------
COSX GRID GENERATION
--------------------

GRIDX 1
-------
General Integration Accuracy     IntAcc      ... 3.816
Radial Grid Type                 RadialGrid  ... OptM3 with GC (2021)
Angular Grid (max. ang.)         AngularGrid ... 1 (Lebedev-50)
Angular grid pruning method      GridPruning ... 4 (adaptive)
Weight generation scheme         WeightScheme... Becke
Basis function cutoff            BFCut       ... 1.0000e-11
Integration weight cutoff        WCut        ... 1.0000e-14
Angular grids for H and He will be reduced by one unit
Partially contracted basis set               ... on
Rotationally invariant grid construction     ... off

Total number of grid points                  ...     2144
Total number of batches                      ...       36
Average number of points per batch           ...       59
Average number of grid points per atom       ...      536
UseSFitting                                  ... on

GRIDX 2
-------
General Integration Accuracy     IntAcc      ... 4.020
Radial Grid Type                 RadialGrid  ... OptM3 with GC (2021)
Angular Grid (max. ang.)         AngularGrid ... 2 (Lebedev-110)
Angular grid pruning method      GridPruning ... 4 (adaptive)
Weight generation scheme         WeightScheme... Becke
Basis function cutoff            BFCut       ... 1.0000e-11
Integration weight cutoff        WCut        ... 1.0000e-14
Angular grids for H and He will be reduced by one unit
Partially contracted basis set               ... on
Rotationally invariant grid construction     ... off

Total number of grid points                  ...     5056
Total number of batches                      ...       80
Average number of points per batch           ...       63
Average number of grid points per atom       ...     1264
UseSFitting                                  ... on

GRIDX 3
-------
General Integration Accuracy     IntAcc      ... 4.338
Radial Grid Type                 RadialGrid  ... OptM3 with GC (2021)
Angular Grid (max. ang.)         AngularGrid ... 3 (Lebedev-194)
Angular grid pruning method      GridPruning ... 4 (adaptive)
Weight generation scheme         WeightScheme... Becke
Basis function cutoff            BFCut       ... 1.0000e-11
Integration weight cutoff        WCut        ... 1.0000e-14
Angular grids for H and He will be reduced by one unit
Partially contracted basis set               ... on
Rotationally invariant grid construction     ... off

Total number of grid points                  ...    11716
Total number of batches                      ...      184
Average number of points per batch           ...       63
Average number of grid points per atom       ...     2929
UseSFitting                                  ... on

Time for X-Grid setup             =    0.236 sec

--------------
SCF ITERATIONS
--------------
ITER       Energy         Delta-E        Max-DP      RMS-DP      [F,P]     Damp
               ***  Starting incremental Fock matrix formation  ***
  0    -39.7958372846   0.000000000000 0.02047180  0.00033470  0.0065499 0.7000
  1    -39.7959145603  -0.000077275725 0.01769548  0.00029036  0.0047660 0.7000
                               ***Turning on DIIS***
  2    -39.7959663343  -0.000051773975 0.04521045  0.00074357  0.0034569 0.0000
  3    -39.7960802596  -0.000113925380 0.00728825  0.00012518  0.0008319 0.0000
               *** Restarting incremental Fock matrix formation ***
                                   *** Resetting DIIS ***
  4    -39.7960856744  -0.000005414727 0.00124156  0.00002772  0.0004030 0.0000
  5    -39.7960865602  -0.000000885791 0.00053010  0.00001061  0.0002314 0.0000
  6    -39.7960869501  -0.000000389924 0.00031394  0.00000677  0.0000501 0.0000
  7    -39.7960869799  -0.000000029776 0.00010997  0.00000208  0.0000113 0.0000
                 **** Energy Check signals convergence ****

               *****************************************************
               *                     SUCCESS                       *
               *           SCF CONVERGED AFTER   8 CYCLES          *
               *****************************************************

Old exchange energy                            =     -2.167269159 Eh
New exchange energy                            =     -2.167272731 Eh
Exchange energy change after final integration =     -0.000003572 Eh
Total energy after final integration           =    -39.796090553 Eh
Final COS-X integration done in                =     0.124 sec
Total Energy       :          -39.79609055 Eh           -1082.90668 eV
  Last Energy change         ...   -1.2726e-09  Tolerance :   1.0000e-08
  Last MAX-Density change    ...    0.0000e+00  Tolerance :   1.0000e-07
             **** THE GBW FILE WAS UPDATED (/beegfs/scratch/ispackman/PFAS_EPR_calcs/benchmark/JChemEd_CF3_radical/CH3_radical_95.5_degrees_IN-PROGRESS/CH3_radical_95.5_degrees.gbw) ****
             **** DENSITY /beegfs/scratch/ispackman/PFAS_EPR_calcs/benchmark/JChemEd_CF3_radical/CH3_radical_95.5_degrees_IN-PROGRESS/CH3_radical_95.5_degrees.scfp WAS UPDATED ****
             **** ENERGY FILE WAS UPDATED (/beegfs/scratch/ispackman/PFAS_EPR_calcs/benchmark/JChemEd_CF3_radical/CH3_radical_95.5_degrees_IN-PROGRESS/CH3_radical_95.5_degrees.en.tmp) ****
----------------------
UHF SPIN CONTAMINATION
----------------------

Warning: in a DFT calculation there is little theoretical justification to 
         calculate <S**2> as in Hartree-Fock theory. We will do it anyways
         but you should keep in mind that the values have only limited relevance

Expectation value of <S**2>     :     0.753348
Ideal value S*(S+1) for S=0.5   :     0.750000
Deviation                       :     0.003348

             **** THE GBW FILE WAS UPDATED (/beegfs/scratch/ispackman/PFAS_EPR_calcs/benchmark/JChemEd_CF3_radical/CH3_radical_95.5_degrees_IN-PROGRESS/CH3_radical_95.5_degrees.gbw) ****
             **** DENSITY /beegfs/scratch/ispackman/PFAS_EPR_calcs/benchmark/JChemEd_CF3_radical/CH3_radical_95.5_degrees_IN-PROGRESS/CH3_radical_95.5_degrees.scfp WAS UPDATED ****
Total SCF time: 0 days 0 hours 0 min 5 sec 

Maximum memory used throughout the entire SCF-calculation: 58.5 MB


-------------------------------------------------------------------------------
                          DFT DISPERSION CORRECTION                            
                                                                               
                              DFTD3 V3.1  Rev 1                                
                              USING zero damping                               
-------------------------------------------------------------------------------
-------------------------   ----------------
Dispersion correction           -0.000006240
-------------------------   ----------------


-------------------------   --------------------
FINAL SINGLE POINT ENERGY       -39.796096793149
-------------------------   --------------------



           ************************************************************
           *        Program running with 18 parallel MPI-processes    *
           *              working on a common directory               *
           ************************************************************
------------------------------------------------------------------------------
                         ORCA SCF GRADIENT CALCULATION
------------------------------------------------------------------------------

 ... reading COSX grid (gridx3)
Gradient of the Kohn-Sham DFT energy:
Kohn-Sham wavefunction type      ... UKS
Hartree-Fock exchange scaling    ...    0.196
Number of operators              ...    2
Number of atoms                  ...    4
Basis set dimensions             ...   64
Integral neglect threshold       ... 2.5e-11
Integral primitive cutoff        ... 2.5e-12
SHARK Integral package           ... ON

Nuc. rep. gradient       (SHARK) ... done (  0.0 sec)
HCore & Overlap gradient (SHARK) ... done (  0.0 sec)
RI-J gradient            (SHARK) ... done (  0.1 sec)
COSX-gradient                    ... done (  0.1 sec)
Exchange-correlation gradient    ... done
Dispersion correction            ... done

------------------
CARTESIAN GRADIENT
------------------

WARNING: THERE ARE 3 CONSTRAINED CARTESIAN COORDINATES
   1   C   :   -0.000087893   -0.000000007    0.094311387
   2   H   :   -0.020056230   -0.000000034   -0.031423552
   3   H   :    0.010055219   -0.017334219   -0.031423308
   4   H   :    0.010055214    0.017334224   -0.031423299

Difference to translation invariance:
           :   -0.0000336905   -0.0000000359    0.0000412281

Difference to rotation invariance:
           :   -0.0000000425   -0.0000594962   -0.0000000731

Norm of the cartesian gradient     ...    0.1142906414
RMS gradient                       ...    0.0329928663
MAX gradient                       ...    0.0943113873

-------
TIMINGS
-------

Total SCF gradient time            ...        0.630 sec

One electron gradient       ....       0.006 sec  (  1.0%)
RI-J Coulomb gradient       ....       0.125 sec  ( 19.9%)
COSX gradient               ....       0.125 sec  ( 19.8%)
XC gradient                 ....       0.067 sec  ( 10.6%)

Maximum memory used throughout the entire SCFGRAD-calculation: 33.6 MB
------------------------------------------------------------------------------
                         ORCA GEOMETRY RELAXATION STEP
------------------------------------------------------------------------------

Reading the OPT-File                    .... done
Getting information on internals        .... done
Copying old internal coords+grads       .... done
Making the new internal coordinates     .... (new redundants).... done
Validating the new internal coordinates .... (new redundants).... done
Calculating the B-matrix                .... done
Calculating the G,G- and P matrices     .... done
Transforming gradient to internals      .... done
Projecting the internal gradient        .... done
Number of atoms                         ....   4
Number of internal coordinates          ....   7
Current Energy                          ....   -39.796096793 Eh
Current gradient norm                   ....     0.114290641 Eh/bohr
Maximum allowed component of the step   ....  0.300
Current trust radius                    ....  0.300
Updating the Hessian (BFGS)             .... done
Forming the augmented Hessian           .... done
Diagonalizing the augmented Hessian     .... done
Last element of RFO vector              ....  0.999992012
Lowest eigenvalues of augmented Hessian:
 -0.000005655  0.353943338  0.373574723  0.373575943 999.999999980
Length of the computed step             ....  0.003996999
The final length of the internal step   ....  0.003996999
Converting the step to cartesian space:
 Initial RMS(Int)=    0.0015107238
Transforming coordinates:
 Iter   0:  RMS(Cart)=    0.0010306732 RMS(Int)=    0.0015107238
 Iter   1:  RMS(Cart)=    0.0000000000 RMS(Int)=    0.0000000000
Imposing constraints:
 Iter   0:  RMS(Cart)=    0.0000000005 RMS(Int)=    0.0000000010
CONVERGED
done
Storing new coordinates                 .... done

                                .--------------------.
          ----------------------|Geometry convergence|-------------------------
          Item                value                   Tolerance       Converged
          ---------------------------------------------------------------------
          Energy change      -0.0008615989            0.0000050000      NO
          RMS gradient        0.0005347106            0.0001000000      NO
          MAX gradient        0.0008210097            0.0003000000      NO
          RMS step            0.0015107238            0.0020000000      YES
          MAX step            0.0023196583            0.0040000000      YES
          ........................................................
          Max(Bonds)      0.0012      Max(Angles)    0.00
          Max(Dihed)        0.00      Max(Improp)    0.00
          ---------------------------------------------------------------------

The optimization has not yet converged - more geometry cycles are needed


    ---------------------------------------------------------------------------
                         Redundant Internal Coordinates
                            (Angstroem and degrees)

        Definition                    Value    dE/dq     Step     New-Value
    ----------------------------------------------------------------------------
     1. B(H   1,C   0)                1.1003 -0.000808  0.0012    1.1015   
     2. B(H   2,C   0)                1.1003 -0.000821  0.0012    1.1015   
     3. B(H   3,C   0)                1.1003 -0.000821  0.0012    1.1015   
     4. A(H   2,C   0,H   3)           95.50 -0.054467    0.00     95.50 C 
     5. A(H   1,C   0,H   2)           95.50 -0.025852    0.00     95.50 C 
     6. A(H   1,C   0,H   3)           95.50 -0.025852    0.00     95.50 C 
     7. I(H   1,H   3,H   2,C   0)     81.80  0.042986   -0.00     81.80   
    ----------------------------------------------------------------------------

         *************************************************************
         *                GEOMETRY OPTIMIZATION CYCLE   3            *
         *************************************************************
---------------------------------
CARTESIAN COORDINATES (ANGSTROEM)
---------------------------------
  C      0.000010    0.000000    0.008378
  H      0.941491    0.000000   -0.563387
  H     -0.470750    0.815373   -0.563393
  H     -0.470750   -0.815373   -0.563393

----------------------------
CARTESIAN COORDINATES (A.U.)
----------------------------
  NO LB      ZA    FRAG     MASS         X           Y           Z
   0 C     6.0000    0    12.011    0.000018    0.000000    0.015832
   1 H     1.0000    0     1.008    1.779160    0.000000   -1.064647
   2 H     1.0000    0     1.008   -0.889589    1.540831   -1.064658
   3 H     1.0000    0     1.008   -0.889589   -1.540831   -1.064658

--------------------------------
INTERNAL COORDINATES (ANGSTROEM)
--------------------------------
 C      0   0   0     0.000000000000     0.00000000     0.00000000
 H      1   0   0     1.101499792118     0.00000000     0.00000000
 H      1   2   0     1.101530306425    95.50000018     0.00000000
 H      1   2   3     1.101530349045    95.50000018    96.08512845

---------------------------
INTERNAL COORDINATES (A.U.)
---------------------------
 C      0   0   0     0.000000000000     0.00000000     0.00000000
 H      1   0   0     2.081532943674     0.00000000     0.00000000
 H      1   2   0     2.081590607357    95.50000018     0.00000000
 H      1   2   3     2.081590687898    95.50000018    96.08512845



           ************************************************************
           *        Program running with 18 parallel MPI-processes    *
           *              working on a common directory               *
           ************************************************************
------------------------------------------------------------------------------
                   ___                                                        
                  /   \      - P O W E R E D   B Y -                         
                 /     \                                                     
                 |  |  |   _    _      __       _____    __    __             
                 |  |  |  | |  | |    /  \     |  _  \  |  |  /  |          
                  \  \/   | |  | |   /    \    | | | |  |  | /  /          
                 / \  \   | |__| |  /  /\  \   | |_| |  |  |/  /          
                |  |  |   |  __  | /  /__\  \  |    /   |      \           
                |  |  |   | |  | | |   __   |  |    \   |  |\   \          
                \     /   | |  | | |  |  |  |  | |\  \  |  | \   \       
[...]
  ZA   - Total nuclear charge
  QA   - Mulliken gross atomic charge
  VA   - Mayer's total valence
  BVA  - Mayer's bonded valence
  FA   - Mayer's free valence

  ATOM       NA         ZA         QA         VA         BVA        FA
  0 C      6.6555     6.0000    -0.6555     3.8532     3.0725     0.7807
  1 H      0.7818     1.0000     0.2182     1.0106     1.0095     0.0011
  2 H      0.7813     1.0000     0.2187     1.0100     1.0089     0.0011
  3 H      0.7813     1.0000     0.2187     1.0100     1.0088     0.0011

  Mayer bond orders larger than 0.100000
B(  0-C ,  1-H ) :   1.0246 B(  0-C ,  2-H ) :   1.0240 B(  0-C ,  3-H ) :   1.0240 


-------
TIMINGS
-------

Total SCF time: 0 days 0 hours 0 min 4 sec 

Total time                  ....       4.481 sec
Sum of individual times     ....       3.907 sec  ( 87.2%)

Fock matrix formation       ....       3.151 sec  ( 70.3%)
  Split-RI-J                ....       0.482 sec  ( 15.3% of F)
  Chain of spheres X        ....       0.842 sec  ( 26.7% of F)
  XC integration            ....       0.577 sec  ( 18.3% of F)
    Basis function eval.    ....       0.026 sec  (  4.5% of XC)
    Density eval.           ....       0.030 sec  (  5.2% of XC)
    XC-Functional eval.     ....       0.027 sec  (  4.6% of XC)
    XC-Potential eval.      ....       0.033 sec  (  5.7% of XC)
Diagonalization             ....       0.090 sec  (  2.0%)
Density matrix formation    ....       0.008 sec  (  0.2%)
Population analysis         ....       0.165 sec  (  3.7%)
Initial guess               ....       0.006 sec  (  0.1%)
Orbital Transformation      ....       0.000 sec  (  0.0%)
Orbital Orthonormalization  ....       0.002 sec  (  0.0%)
DIIS solution               ....       0.112 sec  (  2.5%)
Grid generation             ....       0.376 sec  (  8.4%)

Maximum memory used throughout the entire SCF-calculation: 58.5 MB


-------------------------------------------------------------------------------
                          DFT DISPERSION CORRECTION                            
                                                                               
                              DFTD3 V3.1  Rev 1                                
                              USING zero damping                               
-------------------------------------------------------------------------------
The omegaB97X-D3 functional is recognized. Fit by Chai et al.
Active option DFTDOPT                   ...         3   

molecular C6(AA) [au] = 107.013275 


            DFT-D V3
 parameters
 s6 scaling factor         :     1.0000 
 rs6 scaling factor        :     1.2810 
 s8 scaling factor         :     1.0000 
 rs8 scaling factor        :     1.0940 
 Damping factor alpha6     :    14.0000 
 Damping factor alpha8     :    16.0000 
 ad hoc parameters k1-k3   :    16.0000     1.3333    -4.0000 

 Edisp/kcal,au: -0.003952758827  -0.000006299121 
 E6   /kcal   :  -0.000613995 
 E8   /kcal   :  -0.003338764 
 % E8         :  84.466681768 

-------------------------   ----------------
Dispersion correction           -0.000006299
-------------------------   ----------------


-------------------------   --------------------
FINAL SINGLE POINT ENERGY       -39.796099860390
-------------------------   --------------------

                                *** OPTIMIZATION RUN DONE ***

                            ***************************************
                            *     ORCA property calculations      *
                            ***************************************

                                    ---------------------
                                    Active property flags
                                    ---------------------
   (+) Dipole Moment


------------------------------------------------------------------------------
                       ORCA ELECTRIC PROPERTIES CALCULATION
------------------------------------------------------------------------------

Dipole Moment Calculation                       ... on
Quadrupole Moment Calculation                   ... off
Polarizability Calculation                      ... off
GBWName                                         ... /beegfs/scratch/ispackman/PFAS_EPR_calcs/benchmark/JChemEd_CF3_radical/CH3_radical_95.5_degrees_IN-PROGRESS/CH3_radical_95.5_degrees.gbw
Electron density                                ... /beegfs/scratch/ispackman/PFAS_EPR_calcs/benchmark/JChemEd_CF3_radical/CH3_radical_95.5_degrees_IN-PROGRESS/CH3_radical_95.5_degrees.scfp
The origin for moment calculation is the CENTER OF MASS  = ( 0.000014,  0.000000 -0.201447)

-------------
DIPOLE MOMENT
-------------
                                X             Y             Z
Electronic contribution:      0.00017      -0.00000       0.96663
Nuclear contribution   :     -0.00003      -0.00000      -1.28568
                        -----------------------------------------
Total Dipole Moment    :      0.00014      -0.00000      -0.31905
                        -----------------------------------------
Magnitude (a.u.)       :      0.31905
Magnitude (Debye)      :      0.81096



--------------------
Rotational spectrum 
--------------------
 
Rotational constants in cm-1:     7.913246     7.913046     6.288004 
Rotational constants in MHz : 237233.156624 237227.151665 188509.630964 

 Dipole components along the rotational axes: 
x,y,z [a.u.] :     0.000000     0.000126    -0.319050 
x,y,z [Debye]:     0.000000     0.000321    -0.810961 

 


           ************************************************************
           *        Program running with 18 parallel MPI-processes    *
           *              working on a common directory               *
           ************************************************************

-------------------------------------------------------------------------------
                               ORCA SCF HESSIAN
-------------------------------------------------------------------------------

                   --------- SHARK INITIALIZATION DONE ---------

Hessian of the Kohn-Sham DFT energy:
Kohn-Sham wavefunction type                      ... UKS
Hartree-Fock exchange scaling                    ...    0.196
Number of operators                              ...    2
Number of atoms                                  ...    4
Basis set dimensions                             ...   64
Integral neglect threshold                       ... 2.5e-11
Integral primitive cutoff                        ... 2.5e-12

Setting up DFT Hessian calculations              ... 

HESS GRID
---------

General Integration Accuracy     IntAcc      ... 4.629
Radial Grid Type                 RadialGrid  ... OptM3 with GC (2021)
Angular Grid (max. ang.)         AngularGrid ... 5 (Lebedev-434)
Angular grid pruning method      GridPruning ... 4 (adaptive)
Weight generation scheme         WeightScheme... Becke
Basis function cutoff            BFCut       ... 1.0000e-11
Integration weight cutoff        WCut        ... 1.0000e-14
Angular grids for H and He will be reduced by one unit
Partially contracted basis set               ... off
Rotationally invariant grid construction     ... off

Total number of grid points                  ...    27270
Total number of batches                      ...      428
Average number of points per batch           ...       63
Average number of grid points per atom       ...     6818

Building densities                               ... done   (      0.0 sec)
Calculating rho(r) on the grid                   ... done   (      0.1 sec)
Building xc-kernel on the grid                   ... done   (      0.1 sec)
                                                     done   (      0.4 sec)

Nuclear repulsion Hessian  (SHARK)               ... done   (      0.0 sec)

----------------------------------------------
Forming right-hand sides of CP-SCF equations     ...
----------------------------------------------
One electron integral derivatives  (SHARK)       ... done   (      0.0 sec)
Transforming the overlap derivative matrices     ... done   (      0.0 sec)
Making the Q(x) pseudodensities                  ... done   (      0.0 sec)
Adding the E*S(x)*S(y) terms to the Hessian      ... done   (      0.0 sec)
Calculating energy weighted overlap derivatives  ... done   (      0.0 sec)
Two electron integral derivatives (SHARK-RI)     ... done   (      0.5 sec)
Exchange-correlation integral derivatives        ... done   (      0.4 sec)
tr(F(y)Q(x)) contribution to the Hessian         ... done   (      0.0 sec)
Response fock operator R(S(x)) (SHARK-RIJCOSX)   ... done   (      0.5 sec)
XC Response fock operator R(S(x))                ... done   (      0.1 sec)
tr(F(y)S(x)) contribution to the Hessian         ... done   (      0.0 sec)
Transforming and finalizing RHSs                 ... done   (      0.0 sec)

----------------------------------------------
Solving the CP-SCF equations (RIJCOSX)           ...
----------------------------------------------
     CP-SCF ITERATION   0:   1.3910e-01 (   0.3 sec   0/ 12 done)
     CP-SCF ITERATION   1:   3.2176e-02 (   0.3 sec   0/ 12 done)
     CP-SCF ITERATION   2:   1.2815e-02 (   0.3 sec   0/ 12 done)
     CP-SCF ITERATION   3:   4.3249e-03 (   0.3 sec   0/ 12 done)
     CP-SCF ITERATION   4:   6.7997e-04 (   0.3 sec   1/ 12 done)
     CP-SCF ITERATION   5:   1.5787e-04 (   0.3 sec   5/ 12 done)
     CP-SCF ITERATION   6:   3.5639e-05 (   0.3 sec  12/ 12 done)
                    *** THE CP-SCF HAS CONVERGED ***

                                                 ... done   (      2.2 sec)
Forming perturbed density Hessian contributions  ... done   (      0.0 sec)
2nd integral derivative contribs (SHARK-RI)      ... done   (      0.8 sec)
Exchange-correlation Hessian                     ... done   (      0.3 sec)
Dispersion correction in the Hessian             ... done   (      0.1 sec)
Dipole derivatives                               ... (center of mass:  0.000014,  0.000000 -0.201447)done   (      0.1 sec)

Total SCF Hessian time: 0 days 0 hours 0 min 6 sec 

Writing the Hessian file to the disk             ... done


Maximum memory used throughout the entire SCFHESS-calculation: 109.7 MB

-----------------------
VIBRATIONAL FREQUENCIES
-----------------------

Scaling factor for frequencies =  1.000000000  (already applied!)

   0:         0.00 cm**-1
   1:         0.00 cm**-1
   2:         0.00 cm**-1
   3:         0.00 cm**-1
   4:         0.00 cm**-1
   5:         0.00 cm**-1
   6:      1370.53 cm**-1
   7:      1371.05 cm**-1
   8:      1373.80 cm**-1
   9:      3034.36 cm**-1
  10:      3037.32 cm**-1
  11:      3037.44 cm**-1


------------
NORMAL MODES
------------

These modes are the Cartesian displacements weighted by the diagonal matrix
M(i,i)=1/sqrt(m[i]) where m[i] is the mass of the displaced atom
Thus, these vectors are normalized but *not* orthogonal

                  0          1          2          3          4          5    
      0       0.000000   0.000000   0.000000   0.000000   0.000000   0.000000
      1       0.000000   0.000000   0.000000   0.000000   0.000000   0.000000
      2       0.000000   0.000000   0.000000   0.000000   0.000000   0.000000
      3       0.000000   0.000000   0.000000   0.000000   0.000000   0.000000
      4       0.000000   0.000000   0.000000   0.000000   0.000000   0.000000
      5       0.000000   0.000000   0.000000   0.000000   0.000000   0.000000
      6       0.000000   0.000000   0.000000   0.000000   0.000000   0.000000
      7       0.000000   0.000000   0.000000   0.000000   0.000000   0.000000
      8       0.000000   0.000000   0.000000   0.000000   0.000000   0.000000
      9       0.000000   0.000000   0.000000   0.000000   0.000000   0.000000
     10       0.000000   0.000000   0.000000   0.000000   0.000000   0.000000
     11       0.000000   0.000000   0.000000   0.000000   0.000000   0.000000
                  6          7          8          9         10         11    
      0       0.053634   0.000015  -0.044146   0.003350  -0.081871   0.000055
      1       0.000017  -0.067736  -0.000005  -0.000003  -0.000055  -0.081913
      2      -0.076706  -0.000012  -0.095396  -0.059268  -0.002467   0.000004
      3       0.317748   0.000069   0.091901  -0.554476   0.685996  -0.000441
      4      -0.000177   0.722957   0.000048  -0.000002  -0.000039  -0.058277
      5       0.563422   0.000122   0.165941   0.251573  -0.385167   0.000250
      6      -0.478511   0.392964   0.217091   0.257266   0.144552  -0.332339
      7      -0.163743   0.042014   0.440196  -0.441570  -0.350716   0.517416
      8       0.175360  -0.282977   0.485365   0.227311   0.207050  -0.342369
      9      -0.478319  -0.393215   0.217039   0.257293   0.145001   0.332122
     10       0.163722   0.042145  -0.440190   0.441612   0.351416   0.516905
     11       0.175222   0.282999   0.485402   0.227339   0.207513   0.342070


-----------
IR SPECTRUM
-----------

 Mode   freq       eps      Int      T**2         TX        TY        TZ
       cm**-1   L/(mol*cm) km/mol    a.u.
----------------------------------------------------------------------------
  6:   1370.53   0.001235    6.24  0.000281  (-0.013017 -0.000004  0.010567)
  7:   1371.05   0.001191    6.02  0.000271  (-0.000004  0.016462  0.000002)
  8:   1373.80   0.001216    6.15  0.000276  ( 0.010420  0.000001  0.012952)
  9:   3034.36   0.000030    0.15  0.000003  ( 0.001309 -0.000001 -0.001185)
 10:   3037.32   0.008694   43.94  0.000893  (-0.029888 -0.000020 -0.000072)
 11:   3037.44   0.008878   44.86  0.000912  ( 0.000020 -0.030201  0.000000)

* The epsilon (eps) is given for a Dirac delta lineshape.
** The dipole moment derivative (T) already includes vibrational overlap.

The first frequency considered to be a vibration is 6
The total number of vibrations considered is 6


--------------------------
THERMOCHEMISTRY AT 298.15K
--------------------------

Temperature         ... 298.15 K
Pressure            ... 1.00 atm
Total Mass          ... 15.03 AMU

Throughout the following assumptions are being made:
  (1) The electronic state is orbitally nondegenerate
      but the spin degeneracy is treated
  (2) There are no thermally accessible electronically excited states
  (3) Hindered rotations indicated by low frequency modes are not
      treated as such but are treated as vibrations and this may
      cause some error
  (4) All equations used are the standard statistical mechanics
      equations for an ideal gas
  (5) All vibrations are strictly harmonic

freq.    1370.53  E(vib)   ...       0.01 
freq.    1371.05  E(vib)   ...       0.01 
freq.    1373.80  E(vib)   ...       0.01 
freq.    3034.36  E(vib)   ...       0.00 
freq.    3037.32  E(vib)   ...       0.00 
freq.    3037.44  E(vib)   ...       0.00 

------------
INNER ENERGY
------------

The inner energy is: U= E(el) + E(ZPE) + E(vib) + E(rot) + E(trans)
    E(el)   - is the total energy from the electronic structure calculation
              = E(kin-el) + E(nuc-el) + E(el-el) + E(nuc-nuc)
    E(ZPE)  - the the zero temperature vibrational energy from the frequency calculation
    E(vib)  - the the finite temperature correction to E(ZPE) due to population
              of excited vibrational states
    E(rot)  - is the rotational thermal energy
    E(trans)- is the translational thermal energy

Summary of contributions to the inner energy U:
Electronic energy                ...    -39.79609986 Eh
Zero point energy                ...      0.03012764 Eh      18.91 kcal/mol
Thermal vibrational correction   ...      0.00002506 Eh       0.02 kcal/mol
Thermal rotational correction    ...      0.00141627 Eh       0.89 kcal/mol
Thermal translational correction ...      0.00141627 Eh       0.89 kcal/mol
-----------------------------------------------------------------------
Total thermal energy                    -39.76311462 Eh


Summary of corrections to the electronic energy:
(perhaps to be used in another calculation)
Total thermal correction                  0.00285761 Eh       1.79 kcal/mol
Non-thermal (ZPE) correction              0.03012764 Eh      18.91 kcal/mol
-----------------------------------------------------------------------
Total correction                          0.03298524 Eh      20.70 kcal/mol


--------
ENTHALPY
--------

The enthalpy is H = U + kB*T
                kB is Boltzmann's constant
Total free energy                 ...    -39.76311462 Eh 
Thermal Enthalpy correction       ...      0.00094421 Eh       0.59 kcal/mol
-----------------------------------------------------------------------
Total Enthalpy                    ...    -39.76217041 Eh


Note: Rotational entropy computed according to Herzberg 
Infrared and Raman Spectra, Chapter V,1, Van Nostrand Reinhold, 1945 
Point Group:  C3v, Symmetry Number:   3  
Rotational constants in cm-1:     7.913246     7.913046     6.288004 

Vibrational entropy computed according to the QRRHO of S. Grimme
Chem.Eur.J. 2012 18 9955


-------
ENTROPY
-------

The entropy contributions are T*S = T*(S(el)+S(vib)+S(rot)+S(trans))
     S(el)   - electronic entropy
     S(vib)  - vibrational entropy
     S(rot)  - rotational entropy
     S(trans)- translational entropy
The entropies will be listed as multiplied by the temperature to get
units of energy

Electronic entropy                ...      0.00065446 Eh      0.41 kcal/mol
Vibrational entropy               ...      0.00002885 Eh      0.02 kcal/mol
Rotational entropy                ...      0.00565245 Eh      3.55 kcal/mol
Translational entropy             ...      0.01618771 Eh     10.16 kcal/mol
-----------------------------------------------------------------------
Final entropy term                ...      0.02252347 Eh     14.13 kcal/mol

In case the symmetry of your molecule has not been determined correctly
or in case you have a reason to use a different symmetry number we print 
out the resulting rotational entropy values for sn=1,12 :
 --------------------------------------------------------
|  sn= 1 | S(rot)=       0.00668974 Eh      4.20 kcal/mol|
|  sn= 2 | S(rot)=       0.00603529 Eh      3.79 kcal/mol|
|  sn= 3 | S(rot)=       0.00565245 Eh      3.55 kcal/mol|
|  sn= 4 | S(rot)=       0.00538083 Eh      3.38 kcal/mol|
|  sn= 5 | S(rot)=       0.00517014 Eh      3.24 kcal/mol|
|  sn= 6 | S(rot)=       0.00499800 Eh      3.14 kcal/mol|
|  sn= 7 | S(rot)=       0.00485245 Eh      3.04 kcal/mol|
|  sn= 8 | S(rot)=       0.00472637 Eh      2.97 kcal/mol|
|  sn= 9 | S(rot)=       0.00461516 Eh      2.90 kcal/mol|
|  sn=10 | S(rot)=       0.00451568 Eh      2.83 kcal/mol|
|  sn=11 | S(rot)=       0.00442569 Eh      2.78 kcal/mol|
|  sn=12 | S(rot)=       0.00434354 Eh      2.73 kcal/mol|
 --------------------------------------------------------


-------------------
GIBBS FREE ENERGY
-------------------

The Gibbs free energy is G = H - T*S

Total enthalpy                    ...    -39.76217041 Eh 
Total entropy correction          ...     -0.02252347 Eh    -14.13 kcal/mol
-----------------------------------------------------------------------
Final Gibbs free energy         ...    -39.78469388 Eh

For completeness - the Gibbs free energy minus the electronic energy
G-E(el)                           ...      0.01140598 Eh      7.16 kcal/mol


Timings for individual modules:

Sum of individual times         ...       63.291 sec (=   1.055 min)
GTO integral calculation        ...       11.266 sec (=   0.188 min)  17.8 %
SCF iterations                  ...       32.701 sec (=   0.545 min)  51.7 %
SCF Gradient evaluation         ...       10.080 sec (=   0.168 min)  15.9 %
Geometry relaxation             ...        0.573 sec (=   0.010 min)   0.9 %
Analytical frequency calculation...        8.672 sec (=   0.145 min)  13.7 %
                             ****ORCA TERMINATED NORMALLY****
TOTAL RUN TIME: 0 days 0 hours 1 minutes 15 seconds 115 msec

slurmID:    32260133
totalRuntime[s]:    75.171494853
