
                                 *****************
                                 * O   R   C   A *
                                 *****************

                                            #,                                       
                                            ###                                      
                                            ####                                     
                                            #####                                    
                                            ######                                   
                                           ########,                                 
                                     ,,################,,,,,                         
                               ,,#################################,,                 
                          ,,##########################################,,             
                       ,#########################################, ''#####,          
                    ,#############################################,,   '####,        
                  ,##################################################,,,,####,       
                ,###########''''           ''''###############################       
              ,#####''   ,,,,##########,,,,          '''####'''          '####       
            ,##' ,,,,###########################,,,                        '##       
           ' ,,###''''                  '''############,,,                           
         ,,##''                                '''############,,,,        ,,,,,,###''
      ,#''                                            '''#######################'''  
     '                                                          ''''####''''         
             ,#######,   #######,   ,#######,      ##                                
            ,#'     '#,  ##    ##  ,#'     '#,    #''#        ######   ,####,        
            ##       ##  ##   ,#'  ##            #'  '#       #        #'  '#        
            ##       ##  #######   ##           ,######,      #####,   #    #        
            '#,     ,#'  ##    ##  '#,     ,#' ,#      #,         ##   #,  ,#        
             '#######'   ##     ##  '#######'  #'      '#     #####' # '####'        



                  #######################################################
                  #                        -***-                        #
                  #          Department of theory and spectroscopy      #
                  #    Directorship and core code : Frank Neese         #
                  #        Max Planck Institute fuer Kohlenforschung    #
                  #                Kaiser Wilhelm Platz 1               #
                  #                 D-45470 Muelheim/Ruhr               #
                  #                      Germany                        #
                  #                                                     #
                  #                  All rights reserved                #
                  #                        -***-                        #
                  #######################################################


                         Program Version 5.0.4 -  RELEASE  -


 With contributions from (in alphabetic order):
   Daniel Aravena         : Magnetic Suceptibility
   Michael Atanasov       : Ab Initio Ligand Field Theory (pilot matlab implementation)
   Alexander A. Auer      : GIAO ZORA, VPT2 properties, NMR spectrum
   Ute Becker             : Parallelization
   Giovanni Bistoni       : ED, misc. LED, open-shell LED, HFLD
   Martin Brehm           : Molecular dynamics
   Dmytro Bykov           : SCF Hessian
   Vijay G. Chilkuri      : MRCI spin determinant printing, contributions to CSF-ICE
   Dipayan Datta          : RHF DLPNO-CCSD density
   Achintya Kumar Dutta   : EOM-CC, STEOM-CC
   Dmitry Ganyushin       : Spin-Orbit,Spin-Spin,Magnetic field MRCI
   Miquel Garcia          : C-PCM and meta-GGA Hessian, CC/C-PCM, Gaussian charge scheme
   Yang Guo               : DLPNO-NEVPT2, F12-NEVPT2, CIM, IAO-localization
   Andreas Hansen         : Spin unrestricted coupled pair/coupled cluster methods
   Benjamin Helmich-Paris : MC-RPA, TRAH-SCF, COSX integrals
   Lee Huntington         : MR-EOM, pCC
   Robert Izsak           : Overlap fitted RIJCOSX, COSX-SCS-MP3, EOM
   Marcus Kettner         : VPT2
   Christian Kollmar      : KDIIS, OOCD, Brueckner-CCSD(T), CCSD density, CASPT2, CASPT2-K
   Simone Kossmann        : Meta GGA functionals, TD-DFT gradient, OOMP2, MP2 Hessian
   Martin Krupicka        : Initial AUTO-CI
   Lucas Lang             : DCDCAS
   Marvin Lechner         : AUTO-CI (C++ implementation), FIC-MRCC
   Dagmar Lenk            : GEPOL surface, SMD
   Dimitrios Liakos       : Extrapolation schemes; Compound Job, initial MDCI parallelization
   Dimitrios Manganas     : Further ROCIS development; embedding schemes
   Dimitrios Pantazis     : SARC Basis sets
   Anastasios Papadopoulos: AUTO-CI, single reference methods and gradients
   Taras Petrenko         : DFT Hessian,TD-DFT gradient, ASA, ECA, R-Raman, ABS, FL, XAS/XES, NRVS
   Peter Pinski           : DLPNO-MP2, DLPNO-MP2 Gradient
   Christoph Reimann      : Effective Core Potentials
   Marius Retegan         : Local ZFS, SOC
   Christoph Riplinger    : Optimizer, TS searches, QM/MM, DLPNO-CCSD(T), (RO)-DLPNO pert. Triples
   Tobias Risthaus        : Range-separated hybrids, TD-DFT gradient, RPA, STAB
   Michael Roemelt        : Original ROCIS implementation
   Masaaki Saitow         : Open-shell DLPNO-CCSD energy and density
   Barbara Sandhoefer     : DKH picture change effects
   Avijit Sen             : IP-ROCIS
   Kantharuban Sivalingam : CASSCF convergence, NEVPT2, FIC-MRCI
   Bernardo de Souza      : ESD, SOC TD-DFT
   Georgi Stoychev        : AutoAux, RI-MP2 NMR, DLPNO-MP2 response
   Willem Van den Heuvel  : Paramagnetic NMR
   Boris Wezisla          : Elementary symmetry handling
   Frank Wennmohs         : Technical directorship


 We gratefully acknowledge several colleagues who have allowed us to
 interface, adapt or use parts of their codes:
   Stefan Grimme, W. Hujo, H. Kruse, P. Pracht,  : VdW corrections, initial TS optimization,
                  C. Bannwarth, S. Ehlert          DFT functionals, gCP, sTDA/sTD-DF
   Ed Valeev, F. Pavosevic, A. Kumar             : LibInt (2-el integral package), F12 methods
   Garnet Chan, S. Sharma, J. Yang, R. Olivares  : DMRG
   Ulf Ekstrom                                   : XCFun DFT Library
   Mihaly Kallay                                 : mrcc  (arbitrary order and MRCC methods)
   Jiri Pittner, Ondrej Demel                    : Mk-CCSD
   Frank Weinhold                                : gennbo (NPA and NBO analysis)
   Christopher J. Cramer and Donald G. Truhlar   : smd solvation model
   Lars Goerigk                                  : TD-DFT with DH, B97 family of functionals
   V. Asgeirsson, H. Jonsson                     : NEB implementation
   FAccTs GmbH                                   : IRC, NEB, NEB-TS, DLPNO-Multilevel, CI-OPT
                                                   MM, QMMM, 2- and 3-layer-ONIOM, Crystal-QMMM,
                                                   LR-CPCM, SF, NACMEs, symmetry and pop. for TD-DFT,
                                                   nearIR, NL-DFT gradient (VV10), updates on ESD,
                                                   ML-optimized integration grids
   S Lehtola, MJT Oliveira, MAL Marques          : LibXC Library
   Liviu Ungur et al                             : ANISO software


 Your calculation uses the libint2 library for the computation of 2-el integrals
 For citations please refer to: http://libint.valeyev.net

 Your ORCA version has been built with support for libXC version: 5.1.0
 For citations please refer to: https://tddft.org/programs/libxc/

 This ORCA versions uses:
   CBLAS   interface :  Fast vector & matrix operations
   LAPACKE interface :  Fast linear algebra routines
   SCALAPACK package :  Parallel linear algebra routines
   Shared memory     :  Shared parallel matrices
   BLAS/LAPACK       :  OpenBLAS 0.3.15  USE64BITINT DYNAMIC_ARCH NO_AFFINITY SkylakeX SINGLE_THREADED
        Core in use  :  SkylakeX
   Copyright (c) 2011-2014, The OpenBLAS Project


Your calculation utilizes the atom-pairwise dispersion correction
with the zero-damping scheme (D30)
Cite in your paper:
S.Grimme, J.Antony, S.Ehrlich and H.Krieg, J.Chem.Phys., 132, (2010), 154104 
   

XCFun DFT library Copyright 2009-2010 Ulf Ekstrom and contributors.
See http://admol.org/xcfun for more information.
This is free software; see the source code for copying conditions.
There is ABSOLUTELY NO WARRANTY; not even for MERCHANTABILITY or FITNESS FOR A PARTICULAR PURPOSE.
For details see the documentation.
Scientific users of this library should cite U. Ekstrom, L. Visscher, R. Bast, A. J. Thorvaldsen and K. Ruud;
J.Chem.Theor.Comp. 2010, DOI: 10.1021/ct100117s
XCFun Version 0.99 

================================================================================

----- Orbital basis set information -----
Your calculation utilizes the basis: def2-TZVPD
   F. Weigend and R. Ahlrichs, Phys. Chem. Chem. Phys. 7, 3297 (2005).
   D. Rappoport and F. Furche, J. Chem. Phys. 133 134105 (2010).

----- AuxJ basis set information -----
Your calculation utilizes the auxiliary basis: def2/J
   F. Weigend, Phys. Chem. Chem. Phys. 8, 1057 (2006).

================================================================================
                                        WARNINGS
                       Please study these warnings very carefully!
================================================================================


WARNING: Geometry Optimization
  ===> : Switching off AutoStart
         For restart on a previous wavefunction, please use MOREAD

INFO   : the flag for use of the SHARK integral package has been found!

================================================================================
                                       INPUT FILE
================================================================================
NAME = /beegfs/scratch/ispackman/PFAS_EPR_calcs/benchmark/JChemEd_CF3_radical/CH3_radical_103.0_degrees_IN-PROGRESS/CH3_radical_103.0_degrees.inp
|  1> ! UKS TightSCF wB97x-D3 def2-TZVPD xyzfile opt freq
|  2> 
|  3> # CH3 radical 103.0 degrees fixed
|  4> 
|  5> %maxcore 1000
|  6> %pal
|  7> nprocs 18
|  8> end
|  9> 
| 10> %geom Constraints
| 11>         { A * 0 * C }
| 12>     end
| 13> end
| 14> * xyz 0 2
| 15> C 0.00 0.00 0.00
| 16> H 0.9759723049 0.0000000000 -0.4624695235
| 17> H -0.4879861524 0.8452168094 -0.4624695235
| 18> H -0.4879861524 -0.8452168094 -0.4624695235
| 19> **                         ****END OF INPUT****
================================================================================

                       *****************************
                       * Geometry Optimization Run *
                       *****************************

Geometry optimization settings:
Update method            Update   .... BFGS
Choice of coordinates    CoordSys .... Z-matrix Internals
Initial Hessian          InHess   .... Almoef's Model

Convergence Tolerances:
Energy Change            TolE     ....  5.0000e-06 Eh
Max. Gradient            TolMAXG  ....  3.0000e-04 Eh/bohr
RMS Gradient             TolRMSG  ....  1.0000e-04 Eh/bohr
Max. Displacement        TolMAXD  ....  4.0000e-03 bohr
RMS Displacement         TolRMSD  ....  2.0000e-03 bohr
Strict Convergence                ....  False
------------------------------------------------------------------------------
                        ORCA OPTIMIZATION COORDINATE SETUP
------------------------------------------------------------------------------

The optimization will be done in new redundant internal coordinates
Making redundant internal coordinates   ...  (new redundants) done
Evaluating the initial hessian          ...  (Almloef) done
Evaluating the coordinates              ...  done
Calculating the B-matrix                .... done
Calculating the G-matrix                .... done
Diagonalizing the G-matrix              .... done
Imposing constraints:
 Iter   0:  RMS(Cart)=    0.0000000000 RMS(Int)=    0.0000000000
CONVERGED
Will constrain atom 0 coordinate 1 
Will constrain atom 0 coordinate 2 
Will constrain atom 1 coordinate 2 
The first mode is                       ....    1
The number of degrees of freedom        ....    6
Storing new coordinates                 .... done

    -----------------------------------------------------------------
                    Redundant Internal Coordinates


    -----------------------------------------------------------------
         Definition                    Initial Value    Approx d2E/dq
    -----------------------------------------------------------------
      1. B(H   1,C   0)                  1.0800         0.373575   
      2. B(H   2,C   0)                  1.0800         0.373575   
      3. B(H   3,C   0)                  1.0800         0.373575   
      4. A(H   2,C   0,H   3)          103.0000         0.294224 C 
      5. A(H   1,C   0,H   2)          103.0000         0.294224 C 
      6. A(H   1,C   0,H   3)          103.0000         0.294224 C 
      7. I(H   1,H   3,H   2,C   0)     68.8163         0.002850   
    -----------------------------------------------------------------

Number of atoms                         .... 4
Number of degrees of freedom            .... 7

         *************************************************************
         *                GEOMETRY OPTIMIZATION CYCLE   1            *
         *************************************************************
---------------------------------
CARTESIAN COORDINATES (ANGSTROEM)
---------------------------------
  C      0.000000    0.000000    0.000000
  H      0.975972    0.000000   -0.462470
  H     -0.487986    0.845217   -0.462470
  H     -0.487986   -0.845217   -0.462470

----------------------------
CARTESIAN COORDINATES (A.U.)
----------------------------
  NO LB      ZA    FRAG     MASS         X           Y           Z
   0 C     6.0000    0    12.011    0.000000    0.000000    0.000000
   1 H     1.0000    0     1.008    1.844320    0.000000   -0.873941
   2 H     1.0000    0     1.008   -0.922160    1.597228   -0.873941
   3 H     1.0000    0     1.008   -0.922160   -1.597228   -0.873941

--------------------------------
INTERNAL COORDINATES (ANGSTROEM)
--------------------------------
 C      0   0   0     0.000000000000     0.00000000     0.00000000
 H      1   0   0     1.080000000045     0.00000000     0.00000000
 H      1   2   0     1.079999999997   103.00000000     0.00000000
 H      1   2   3     1.079999999997   103.00000000   106.87239055

---------------------------
INTERNAL COORDINATES (A.U.)
---------------------------
 C      0   0   0     0.000000000000     0.00000000     0.00000000
 H      1   0   0     2.040904224721     0.00000000     0.00000000
 H      1   2   0     2.040904224629   103.00000000     0.00000000
 H      1   2   3     2.040904224629   103.00000000   106.87239055

---------------------
BASIS SET INFORMATION
---------------------
There are 2 groups of distinct atoms

 Group   1 Type C   : 12s6p3d1f contracted to 6s3p3d1f pattern {621111/411/111/1}
 Group   2 Type H   : 5s2p contracted to 3s2p pattern {311/11}

Atom   0C    basis set group =>   1
Atom   1H    basis set group =>   2
Atom   2H    basis set group =>   2
Atom   3H    basis set group =>   2
---------------------------------
AUXILIARY/J BASIS SET INFORMATION
---------------------------------
There are 2 groups of distinct atoms

 Group   1 Type C   : 12s5p4d2f1g contracted to 6s4p3d1f1g pattern {711111/2111/211/2/1}
 Group   2 Type H   : 5s2p1d contracted to 3s1p1d pattern {311/2/1}

Atom   0C    basis set group =>   1
Atom   1H    basis set group =>   2
Atom   2H    basis set group =>   2
Atom   3H    basis set group =>   2


           ************************************************************
           *        Program running with 18 parallel MPI-processes    *
           *              working on a common directory               *
           ************************************************************
------------------------------------------------------------------------------
                           ORCA GTO INTEGRAL CALCULATION
                           -- RI-GTO INTEGRALS CHOSEN --
------------------------------------------------------------------------------
------------------------------------------------------------------------------
                   ___                                                        
                  /   \      - P O W E R E D   B Y -                         
                 /     \                                                     
                 |  |  |   _    _      __       _____    __    __             
                 |  |  |  | |  | |    /  \     |  _  \  |  |  /  |          
                  \  \/   | |  | |   /    \    | | | |  |  | /  /          
                 / \  \   | |__| |  /  /\  \   | |_| |  |  |/  /          
                |  |  |   |  __  | /  /__\  \  |    /   |      \           
                |  |  |   | |  | | |   __   |  |    \   |  |\   \          
                \     /   | |  | | |  |  |  |  | |\  \  |  | \   \       
                 \___/    |_|  |_| |__|  |__|  |_| \__\ |__|  \__/        
                                                                              
                      - O R C A' S   B I G   F R I E N D -                    
                                      &                                       
                       - I N T E G R A L  F E E D E R -                       
                                                                              
 v1 FN, 2020, v2 2021                                                         
------------------------------------------------------------------------------


Reading SHARK input file /beegfs/scratch/ispackman/PFAS_EPR_calcs/benchmark/JChemEd_CF3_radical/CH3_radical_103.0_degrees_IN-PROGRESS/CH3_radical_103.0_degrees.SHARKINP.tmp ... ok
----------------------
SHARK INTEGRAL PACKAGE
----------------------

Number of atoms                             ...      4
Number of basis functions                   ...     64
Number of shells                            ...     28
Maximum angular momentum                    ...      3
Integral batch strategy                     ... SHARK/LIBINT Hybrid
RI-J (if used) integral strategy            ... SPLIT-RIJ (Revised 2003 algorithm where possible)
Printlevel                                  ...      1
Contraction scheme used                     ... SEGMENTED contraction
Coulomb Range Separation                    ... NOT USED
Exchange Range Separation                   ... Long Range
   Mu parameter                             ...  0.250000
   Scaling (regular/separated)              ...  0.195728  0.804272
Finite Nucleus Model                        ... NOT USED
Auxiliary Coulomb fitting basis             ... AVAILABLE
   # of basis functions in Aux-J            ...     82
   # of shells in Aux-J                     ...     30
   Maximum angular momentum in Aux-J        ...      4
Auxiliary J/K fitting basis                 ... NOT available
Auxiliary Correlation fitting basis         ... NOT available
Auxiliary 'external' fitting basis          ... NOT available
Integral threshold                          ...     2.500000e-11
Primitive cut-off                           ...     2.500000e-12
Primitive pair pre-selection threshold      ...     2.500000e-12

Calculating pre-screening integrals         ... done (  0.0 sec) Dimension = 28
Organizing shell pair data                  ... done (  0.0 sec)
Shell pair information
Total number of shell pairs                 ...       406
Shell pairs after pre-screening             ...       406
Total number of primitive shell pairs       ...       977
Primitive shell pairs kept                  ...       947
          la=0 lb=0:    120 shell pairs
          la=1 lb=0:    135 shell pairs
          la=1 lb=1:     45 shell pairs
          la=2 lb=0:     45 shell pairs
          la=2 lb=1:     27 shell pairs
          la=2 lb=2:      6 shell pairs
          la=3 lb=0:     15 shell pairs
          la=3 lb=1:      9 shell pairs
          la=3 lb=2:      3 shell pairs
          la=3 lb=3:      1 shell pairs

Calculating one electron integrals          ... done (  0.0 sec)
Calculating RI/J V-Matrix + Cholesky decomp.... done (  0.0 sec)
Calculating Nuclear repulsion               ... done (  0.0 sec) ENN=      9.758747003217 Eh

SHARK setup successfully completed in   0.3 seconds

Maximum memory used throughout the entire GTOINT-calculation: 14.0 MB


           ************************************************************
           *        Program running with 18 parallel MPI-processes    *
           *              working on a common directory               *
           ************************************************************
-------------------------------------------------------------------------------
                                 ORCA SCF
-------------------------------------------------------------------------------

------------
SCF SETTINGS
------------
Hamiltonian:
 Density Functional     Method          .... DFT(GTOs)
 Exchange Functional    Exchange        .... WB97X-D3
 Correlation Functional Correlation     .... WB97X-D3
 Gradients option       PostSCFGGA      .... off
 Hybrid DFT is turned on
   Fraction HF Exchange ScalHFX         ....  0.195728
   Scaling of DF-GGA-X  ScalDFX         ....  0.000000
   Scaling of DF-GGA-C  ScalDFC         ....  1.000000
   Scaling of DF-LDA-C  ScalLDAC        ....  1.000000
   Perturbative correction              ....  0.000000
   Density functional embedding theory  .... OFF
 Long-range corrected/Screened/Range-Separated Hybrid DFT is turned on
   Amount of maximum screened exact exchange              ....  0.804272
   Range separation parameter mu (erf(mu*r12)/r12)        ....  0.250000
 RI-approximation to the Coulomb term is turned on
   Number of AuxJ basis functions       .... 82
   RIJ-COSX (HFX calculated with COS-X)).... on


General Settings:
 Integral files         IntName         .... /beegfs/scratch/ispackman/PFAS_EPR_calcs/benchmark/JChemEd_CF3_radical/CH3_radical_103.0_degrees_IN-PROGRESS/CH3_radical_103.0_degrees
 Hartree-Fock type      HFTyp           .... UHF
 Total Charge           Charge          ....    0
 Multiplicity           Mult            ....    2
 Number of Electrons    NEL             ....    9
 Basis Dimension        Dim             ....   64
 Nuclear Repulsion      ENuc            ....      9.7587470032 Eh

Convergence Acceleration:
 DIIS                   CNVDIIS         .... on
   Start iteration      DIISMaxIt       ....    12
   Startup error        DIISStart       ....  0.200000
   # of expansion vecs  DIISMaxEq       ....     5
   Bias factor          DIISBfac        ....   1.050
   Max. coefficient     DIISMaxC        ....  10.000
 Trust-Rad. Augm. Hess. CNVTRAH         .... auto
   Auto Start mean grad. ratio tolernc. ....  1.125000
   Auto Start start iteration           ....    20
   Auto Start num. interpolation iter.  ....    10
   Max. Number of Micro iterations      ....    16
   Max. Number of Macro iterations      .... Maxiter - #DIIS iter
   Number of Davidson start vectors     ....     2
   Converg. threshold I  (grad. norm)   ....   1.000e-05
   Converg. threshold II (energy diff.) ....   1.000e-08
   Grad. Scal. Fac. for Micro threshold ....   0.100
   Minimum threshold for Micro iter.    ....   0.010
   NR start threshold (gradient norm)   ....   0.001
   Initial trust radius                 ....   0.400
   Minimum AH scaling param. (alpha)    ....   1.000
   Maximum AH scaling param. (alpha)    .... 1000.000
   Orbital update algorithm             .... Taylor
   White noise on init. David. guess    .... on
   Maximum white noise                  ....   0.010
   Quad. conv. algorithm                .... NR
 SOSCF                  CNVSOSCF        .... off
 Level Shifting         CNVShift        .... on
   Level shift para.    LevelShift      ....    0.2500
   Turn off err/grad.   ShiftErr        ....    0.0010
 Zerner damping         CNVZerner       .... off
 Static damping         CNVDamp         .... on
   Fraction old density DampFac         ....    0.7000
   Max. Damping (<1)    DampMax         ....    0.9800
   Min. Damping (>=0)   DampMin         ....    0.0000
   Turn off err/grad.   DampErr         ....    0.1000
 Fernandez-Rico         CNVRico         .... off

SCF Procedure:
 Maximum # iterations   MaxIter         ....   125
 SCF integral mode      SCFMode         .... Direct
   Integral package                     .... SHARK and LIBINT hybrid scheme
 Reset frequency        DirectResetFreq ....    20
 Integral Threshold     Thresh          ....  2.500e-11 Eh
 Primitive CutOff       TCut            ....  2.500e-12 Eh

Convergence Tolerance:
 Convergence Check Mode ConvCheckMode   .... Total+1el-Energy
 Convergence forced     ConvForced      .... 0
 Energy Change          TolE            ....  1.000e-08 Eh
 1-El. energy change                    ....  1.000e-05 Eh
 DIIS Error             TolErr          ....  5.000e-07


Diagonalization of the overlap matrix:
Smallest eigenvalue                        ... 4.326e-05
Time for diagonalization                   ...    0.002 sec
Threshold for overlap eigenvalues          ... 1.000e-08
Number of eigenvalues below threshold      ... 0
Time for construction of square roots      ...    0.013 sec
Total time needed                          ...    0.016 sec

Time for model grid setup =    0.040 sec

------------------------------
INITIAL GUESS: MODEL POTENTIAL
------------------------------
Loading Hartree-Fock densities                     ... done
Calculating cut-offs                               ... done
Initializing the effective Hamiltonian             ... done
Setting up the integral package (SHARK)            ... done
Starting the Coulomb interaction                   ... done (   0.2 sec)
Reading the grid                                   ... done
Mapping shells                                     ... done
Starting the XC term evaluation                    ... done (   0.0 sec)
  promolecular density results
     # of electrons  =      8.997910255
     EX              =     -5.935874563
     EC              =     -0.260068771
     EX+EC           =     -6.195943335
Transforming the Hamiltonian                       ... done (   0.0 sec)
Diagonalizing the Hamiltonian                      ... done (   0.0 sec)
Back transforming the eigenvectors                 ... done (   0.0 sec)
Now organizing SCF variables                       ... done
                      ------------------
                      INITIAL GUESS DONE (   0.3 sec)
                      ------------------
-------------------
DFT GRID GENERATION
-------------------

General Integration Accuracy     IntAcc      ... 4.388
Radial Grid Type                 RadialGrid  ... OptM3 with GC (2021)
Angular Grid (max. ang.)         AngularGrid ... 4 (Lebedev-302)
Angular grid pruning method      GridPruning ... 4 (adaptive)
Weight generation scheme         WeightScheme... Becke
Basis function cutoff            BFCut       ... 1.0000e-11
Integration weight cutoff        WCut        ... 1.0000e-14
Angular grids for H and He will be reduced by one unit
Partially contracted basis set               ... off
Rotationally invariant grid construction     ... off

Total number of grid points                  ...    17041
Total number of batches                      ...      269
Average number of points per batch           ...       63
Average number of grid points per atom       ...     4260
Time for grid setup =    0.104 sec

--------------------
COSX GRID GENERATION
--------------------

GRIDX 1
-------
General Integration Accuracy     IntAcc      ... 3.816
Radial Grid Type                 RadialGrid  ... OptM3 with GC (2021)
Angular Grid (max. ang.)         AngularGrid ... 1 (Lebedev-50)
Angular grid pruning method      GridPruning ... 4 (adaptive)
Weight generation scheme         WeightScheme... Becke
Basis function cutoff            BFCut       ... 1.0000e-11
Integration weight cutoff        WCut        ... 1.0000e-14
Angular grids for H and He will be reduced by one unit
Partially contracted basis set               ... on
Rotationally invariant grid construction     ... off

Total number of grid points                  ...     2149
Total number of batches                      ...       36
Average number of points per batch           ...       59
Average number of grid points per atom       ...      537
UseSFitting                                  ... on

GRIDX 2
-------
General Integration Accuracy     IntAcc      ... 4.020
Radial Grid Type                 RadialGrid  ... OptM3 with GC (2021)
Angular Grid (max. ang.)         AngularGrid ... 2 (Lebedev-110)
Angular grid pruning method      GridPruning ... 4 (adaptive)
Weight generation scheme         WeightScheme... Becke
Basis function cutoff            BFCut       ... 1.0000e-11
Integration weight cutoff        WCut        ... 1.0000e-14
Angular grids for H and He will be reduced by one unit
Partially contracted basis set               ... on
Rotationally invariant grid construction     ... off

Total number of grid points                  ...     5034
Total number of batches                      ...       80
Average number of points per batch           ...       62
Average number of grid points per atom       ...     1258
UseSFitting                                  ... on

GRIDX 3
-------
General Integration Accuracy     IntAcc      ... 4.338
Radial Grid Type                 RadialGrid  ... OptM3 with GC (2021)
Angular Grid (max. ang.)         AngularGrid ... 3 (Lebedev-194)
Angular grid pruning method      GridPruning ... 4 (adaptive)
Weight generation scheme         WeightScheme... Becke
Basis function cutoff            BFCut       ... 1.0000e-11
Integration weight cutoff        WCut        ... 1.0000e-14
Angular grids for H and He will be reduced by one unit
Partially contracted basis set               ... on
Rotationally invariant grid construction     ... off

Total number of grid points                  ...    11707
Total number of batches                      ...      185
Average number of points per batch           ...       63
Average number of grid points per atom       ...     2927
UseSFitting                                  ... on

Time for X-Grid setup             =    0.239 sec

--------------
SCF ITERATIONS
--------------
ITER       Energy         Delta-E        Max-DP      RMS-DP      [F,P]     Damp
               ***  Starting incremental Fock matrix formation  ***
  0    -39.7789627715   0.000000000000 0.05914627  0.00116700  0.0763603 0.7000
  1    -39.7926457577  -0.013682986265 0.05547624  0.00103262  0.0490038 0.7000
                               ***Turning on DIIS***
  2    -39.8003933177  -0.007747559998 0.12091638  0.00227966  0.0283048 0.0000
  3    -39.8138380227  -0.013444704941 0.03602684  0.00068753  0.0192629 0.0000
  4    -39.8153722358  -0.001534213148 0.01270070  0.00021904  0.0033542 0.0000
  5    -39.8154385791  -0.000066343324 0.01115740  0.00018487  0.0016243 0.0000
  6    -39.8154602396  -0.000021660440 0.01171448  0.00018795  0.0006244 0.0000
               *** Restarting incremental Fock matrix formation ***
                                   *** Resetting DIIS ***
  7    -39.8154710577  -0.000010818114 0.00123299  0.00001966  0.0000820 0.0000
  8    -39.8154711976  -0.000000139941 0.00070206  0.00001127  0.0000353 0.0000
  9    -39.8154712390  -0.000000041373 0.00002207  0.00000078  0.0000146 0.0000
 10    -39.8154712411  -0.000000002142 0.00000766  0.00000025  0.0000058 0.0000
                 **** Energy Check signals convergence ****

               *****************************************************
               *                     SUCCESS                       *
               *           SCF CONVERGED AFTER  11 CYCLES          *
               *****************************************************

Old exchange energy                            =     -2.173686886 Eh
New exchange energy                            =     -2.173690121 Eh
Exchange energy change after final integration =     -0.000003235 Eh
Total energy after final integration           =    -39.815474476 Eh
Final COS-X integration done in                =     0.122 sec

----------------
TOTAL SCF ENERGY
----------------

Total Energy       :          -39.81547448 Eh           -1083.43414 eV

Components:
Nuclear Repulsion  :            9.75874700 Eh             265.54901 eV
Electronic Energy  :          -49.57422148 Eh           -1348.98315 eV
One Electron Energy:          -71.77194484 Eh           -1953.01391 eV
Two Electron Energy:           22.19772336 Eh             604.03076 eV
Max COSX asymmetry :            0.00000020 Eh               0.00001 eV

Virial components:
Potential Energy   :          -79.47887582 Eh           -2162.73016 eV
Kinetic Energy     :           39.66340134 Eh            1079.29602 eV
Virial Ratio       :            2.00383409


DFT components:
N(Alpha)           :        4.999997531822 electrons
N(Beta)            :        4.000000421994 electrons
N(Total)           :        8.999997953816 electrons
E(XC)              :       -4.316587723954 Eh       
DFET-embed. en.    :        0.000000000000 Eh       

---------------
SCF CONVERGENCE
---------------

  Last Energy change         ...   -3.4746e-12  Tolerance :   1.0000e-08
  Last MAX-Density change    ...    0.0000e+00  Tolerance :   1.0000e-07
  Last RMS-Density change    ...    0.0000e+00  Tolerance :   5.0000e-09
  Last DIIS Error            ...    1.2669e-06  Tolerance :   5.0000e-07

             **** THE GBW FILE WAS UPDATED (/beegfs/scratch/ispackman/PFAS_EPR_calcs/benchmark/JChemEd_CF3_radical/CH3_radical_103.0_degrees_IN-PROGRESS/CH3_radical_103.0_degrees.gbw) ****
             **** DENSITY /beegfs/scratch/ispackman/PFAS_EPR_calcs/benchmark/JChemEd_CF3_radical/CH3_radical_103.0_degrees_IN-PROGRESS/CH3_radical_103.0_degrees.scfp WAS UPDATED ****
             **** ENERGY FILE WAS UPDATED (/beegfs/scratch/ispackman/PFAS_EPR_calcs/benchmark/JChemEd_CF3_radical/CH3_radical_103.0_degrees_IN-PROGRESS/CH3_radical_103.0_degrees.en.tmp) ****
----------------------
UHF SPIN CONTAMINATION
----------------------

Warning: in a DFT calculation there is little theoretical justification to 
         calculate <S**2> as in Hartree-Fock theory. We will do it anyways
         but you should keep in mind that the values have only limited relevance

Expectation value of <S**2>     :     0.752960
Ideal value S*(S+1) for S=0.5   :     0.750000
Deviation                       :     0.002960

             **** THE GBW FILE WAS UPDATED (/beegfs/scratch/ispackman/PFAS_EPR_calcs/benchmark/JChemEd_CF3_radical/CH3_radical_103.0_degrees_IN-PROGRESS/CH3_radical_103.0_degrees.gbw) ****
             **** DENSITY /beegfs/scratch/ispackman/PFAS_EPR_calcs/benchmark/JChemEd_CF3_radical/CH3_radical_103.0_degrees_IN-PROGRESS/CH3_radical_103.0_degrees.scfp WAS UPDATED ****
----------------
ORBITAL ENERGIES
----------------
                 SPIN UP ORBITALS
  NO   OCC          E(Eh)            E(eV) 
   0   1.0000     -10.293415      -280.0981 
   1   1.0000      -0.817015       -22.2321 
   2   1.0000      -0.499076       -13.5806 
   3   1.0000      -0.499041       -13.5796 
   4   1.0000      -0.378049       -10.2872 
   5   0.0000       0.075575         2.0565 
   6   0.0000       0.161589         4.3971 
   7   0.0000       0.161597         4.3973 
   8   0.0000       0.182035         4.9534 
   9   0.0000       0.194657         5.2969 
  10   0.0000       0.194661         5.2970 
  11   0.0000       0.230523         6.2729 
  12   0.0000       0.253389         6.8951 
  13   0.0000       0.253392         6.8951 
  14   0.0000       0.315322         8.5803 
  15   0.0000       0.354010         9.6331 
  16   0.0000       0.354020         9.6334 
  17   0.0000       0.360571         9.8116 
  18   0.0000       0.377825        10.2811 
  19   0.0000       0.384070        10.4511 
  20   0.0000       0.384074        10.4512 
  21   0.0000       0.401478        10.9248 
  22   0.0000       0.401485        10.9250 
  23   0.0000       0.533335        14.5128 
  24   0.0000       0.558852        15.2071 
  25   0.0000       0.558861        15.2074 
  26   0.0000       0.607200        16.5227 
  27   0.0000       0.783446        21.3187 
  28   0.0000       0.791942        21.5498 
  29   0.0000       0.791947        21.5500 
  30   0.0000       0.870761        23.6946 
  31   0.0000       0.870770        23.6949 
  32   0.0000       0.982364        26.7315 
  33   0.0000       1.157410        31.4947 
  34   0.0000       1.157423        31.4951 
  35   0.0000       1.644435        44.7473 
  36   0.0000       1.742198        47.4076 
  37   0.0000       1.742289        47.4101 
  38   0.0000       1.749003        47.5928 
  39   0.0000       1.792930        48.7881 
  40   0.0000       1.935359        52.6638 
  41   0.0000       1.935398        52.6649 
  42   0.0000       2.202129        59.9230 
  43   0.0000       2.250890        61.2498 
  44   0.0000       2.250979        61.2523 
  45   0.0000       2.351171        63.9786 
  46   0.0000       2.625878        71.4538 
  47   0.0000       2.625900        71.4544 
  48   0.0000       2.722761        74.0901 
  49   0.0000       2.722866        74.0930 
  50   0.0000       2.841619        77.3244 
  51   0.0000       3.034831        82.5820 
  52   0.0000       3.157020        85.9069 
  53   0.0000       3.157088        85.9087 
  54   0.0000       3.293255        89.6140 
  55   0.0000       3.293292        89.6150 
  56   0.0000       3.347295        91.0845 
  57   0.0000       3.415505        92.9406 
  58   0.0000       3.703839       100.7866 
  59   0.0000       3.703896       100.7881 
  60   0.0000       4.430208       120.5521 
  61   0.0000       4.448968       121.0626 
  62   0.0000       4.449251       121.0703 
  63   0.0000      22.183181       603.6350 

                 SPIN DOWN ORBITALS
  NO   OCC          E(Eh)            E(eV) 
   0   1.0000     -10.282062      -279.7891 
   1   1.0000      -0.780177       -21.2297 
   2   1.0000      -0.483970       -13.1695 
   3   1.0000      -0.483968       -13.1694 
   4   0.0000      -0.026896        -0.7319 
   5   0.0000       0.084250         2.2926 
   6   0.0000       0.166524         4.5313 
   7   0.0000       0.166528         4.5315 
   8   0.0000       0.200541         5.4570 
   9   0.0000       0.200551         5.4573 
  10   0.0000       0.218521         5.9463 
  11   0.0000       0.246197         6.6994 
  12   0.0000       0.257746         7.0136 
  13   0.0000       0.257747         7.0137 
  14   0.0000       0.325688         8.8624 
  15   0.0000       0.368446        10.0259 
  16   0.0000       0.368451        10.0261 
  17   0.0000       0.371948        10.1212 
  18   0.0000       0.377724        10.2784 
  19   0.0000       0.391497        10.6532 
  20   0.0000       0.391498        10.6532 
  21   0.0000       0.410608        11.1732 
  22   0.0000       0.410611        11.1733 
  23   0.0000       0.562522        15.3070 
  24   0.0000       0.562533        15.3073 
  25   0.0000       0.568602        15.4724 
  26   0.0000       0.616743        16.7824 
  27   0.0000       0.791626        21.5412 
  28   0.0000       0.803761        21.8714 
  29   0.0000       0.803763        21.8715 
  30   0.0000       0.892612        24.2892 
  31   0.0000       0.892625        24.2896 
  32   0.0000       1.001542        27.2534 
  33   0.0000       1.167345        31.7651 
  34   0.0000       1.167365        31.7656 
  35   0.0000       1.712765        46.6067 
  36   0.0000       1.750198        47.6253 
  37   0.0000       1.751261        47.6542 
  38   0.0000       1.751378        47.6574 
  39   0.0000       1.807615        49.1877 
  40   0.0000       1.951415        53.1007 
  41   0.0000       1.951480        53.1025 
  42   0.0000       2.205985        60.0279 
  43   0.0000       2.262191        61.5573 
  44   0.0000       2.262262        61.5593 
  45   0.0000       2.366040        64.3832 
  46   0.0000       2.630854        71.5892 
  47   0.0000       2.630862        71.5894 
  48   0.0000       2.747038        74.7507 
  49   0.0000       2.747090        74.7521 
  50   0.0000       2.865178        77.9655 
  51   0.0000       3.081366        83.8482 
  52   0.0000       3.205094        87.2150 
  53   0.0000       3.205156        87.2167 
  54   0.0000       3.329502        90.6004 
  55   0.0000       3.329594        90.6029 
  56   0.0000       3.367618        91.6375 
  57   0.0000       3.447594        93.8138 
  58   0.0000       3.748100       101.9910 
  59   0.0000       3.748128       101.9917 
  60   0.0000       4.455138       121.2305 
  61   0.0000       4.471107       121.6650 
  62   0.0000       4.471401       121.6730 
  63   0.0000      22.203257       604.1813 

                    ********************************
                    * MULLIKEN POPULATION ANALYSIS *
                    ********************************

--------------------------------------------
MULLIKEN ATOMIC CHARGES AND SPIN POPULATIONS
--------------------------------------------
   0 C :   -0.694061    0.882568
   1 H :    0.231033    0.039099
   2 H :    0.231513    0.039167
   3 H :    0.231515    0.039167
Sum of atomic charges         :    0.0000000
Sum of atomic spin populations:    1.0000000

-----------------------------------------------------
MULLIKEN REDUCED ORBITAL CHARGES AND SPIN POPULATIONS
-----------------------------------------------------
CHARGE
  0 C s       :     3.335217  s :     3.335217
      pz      :     0.947334  p :     3.309205
      px      :     1.180883
      py      :     1.180989
      dz2     :     0.000477  d :     0.048909
      dxz     :     0.015884
      dyz     :     0.015906
      dx2y2   :     0.008310
      dxy     :     0.008331
      f0      :     0.000401  f :     0.000730
      f+1     :     0.000021
      f-1     :     0.000020
      f+2     :    -0.000087
      f-2     :    -0.000081
      f+3     :     0.000457
      f-3     :     0.000000
  1 H s       :     0.724244  s :     0.724244
      pz      :     0.022561  p :     0.044723
      px      :     0.018327
      py      :     0.003835
  2 H s       :     0.723892  s :     0.723892
      pz      :     0.022475  p :     0.044595
      px      :     0.007452
      py      :     0.014668
  3 H s       :     0.723890  s :     0.723890
      pz      :     0.022475  p :     0.044595
      px      :     0.007452
      py      :     0.014668

SPIN
  0 C s       :     0.018558  s :     0.018558
      pz      :     0.865831  p :     0.874353
      px      :     0.004258
      py      :     0.004265
      dz2     :    -0.001174  d :    -0.009636
      dxz     :    -0.003940
      dyz     :    -0.003937
      dx2y2   :    -0.000297
      dxy     :    -0.000288
      f0      :    -0.000445  f :    -0.000707
      f+1     :    -0.000049
      f-1     :    -0.000048
      f+2     :    -0.000019
      f-2     :    -0.000017
      f+3     :    -0.000129
      f-3     :    -0.000000
  1 H s       :     0.016278  s :     0.016278
      pz      :     0.019714  p :     0.022821
      px      :     0.000159
      py      :     0.002948
  2 H s       :     0.016412  s :     0.016412
      pz      :     0.019650  p :     0.022755
      px      :     0.002247
      py      :     0.000858
  3 H s       :     0.016412  s :     0.016412
      pz      :     0.019650  p :     0.022754
      px      :     0.002247
      py      :     0.000858


                     *******************************
                     * LOEWDIN POPULATION ANALYSIS *
                     *******************************

-------------------------------------------
LOEWDIN ATOMIC CHARGES AND SPIN POPULATIONS
-------------------------------------------
   0 C :    0.056495    0.834926
   1 H :   -0.018862    0.055023
   2 H :   -0.018817    0.055026
   3 H :   -0.018817    0.055026

----------------------------------------------------
LOEWDIN REDUCED ORBITAL CHARGES AND SPIN POPULATIONS
----------------------------------------------------
CHARGE
  0 C s       :     2.908883  s :     2.908883
      pz      :     0.769826  p :     2.903570
      px      :     1.066871
      py      :     1.066873
      dz2     :     0.005058  d :     0.120123
      dxz     :     0.026102
      dyz     :     0.026108
      dx2y2   :     0.031427
      dxy     :     0.031428
      f0      :     0.001431  f :     0.010930
      f+1     :     0.000018
      f-1     :     0.000018
      f+2     :     0.003439
      f-2     :     0.003442
      f+3     :     0.002582
      f-3     :     0.000000
  1 H s       :     0.753217  s :     0.753217
      pz      :     0.069916  p :     0.265645
      px      :     0.121619
      py      :     0.074109
  2 H s       :     0.753190  s :     0.753190
      pz      :     0.069896  p :     0.265626
      px      :     0.085978
      py      :     0.109752
  3 H s       :     0.753190  s :     0.753190
      pz      :     0.069896  p :     0.265626
      px      :     0.085978
      py      :     0.109752

SPIN
  0 C s       :     0.101028  s :     0.101028
      pz      :     0.705309  p :     0.743390
      px      :     0.019055
      py      :     0.019026
      dz2     :     0.000845  d :    -0.009205
      dxz     :    -0.003372
      dyz     :    -0.003374
      dx2y2   :    -0.001659
      dxy     :    -0.001646
      f0      :    -0.000213  f :    -0.000288
      f+1     :    -0.000007
      f-1     :    -0.000007
      f+2     :    -0.000181
      f-2     :    -0.000180
      f+3     :     0.000300
      f-3     :    -0.000000
  1 H s       :    -0.002345  s :    -0.002345
      pz      :     0.055175  p :     0.057367
      px      :     0.003037
      py      :    -0.000845
  2 H s       :    -0.002352  s :    -0.002352
      pz      :     0.055180  p :     0.057378
      px      :     0.000123
      py      :     0.002075
  3 H s       :    -0.002352  s :    -0.002352
      pz      :     0.055180  p :     0.057378
      px      :     0.000123
      py      :     0.002075


                      *****************************
                      * MAYER POPULATION ANALYSIS *
                      *****************************

  NA   - Mulliken gross atomic population
  ZA   - Total nuclear charge
  QA   - Mulliken gross atomic charge
  VA   - Mayer's total valence
  BVA  - Mayer's bonded valence
  FA   - Mayer's free valence

  ATOM       NA         ZA         QA         VA         BVA        FA
  0 C      6.6941     6.0000    -0.6941     3.8132     3.0244     0.7888
  1 H      0.7690     1.0000     0.2310     1.0119     1.0106     0.0014
  2 H      0.7685     1.0000     0.2315     1.0114     1.0100     0.0014
  3 H      0.7685     1.0000     0.2315     1.0114     1.0100     0.0014

  Mayer bond orders larger than 0.100000
B(  0-C ,  1-H ) :   1.0084 B(  0-C ,  2-H ) :   1.0080 B(  0-C ,  3-H ) :   1.0080 


-------
TIMINGS
-------

Total SCF time: 0 days 0 hours 0 min 8 sec 

Total time                  ....       8.017 sec
Sum of individual times     ....       7.338 sec  ( 91.5%)

Fock matrix formation       ....       6.031 sec  ( 75.2%)
  Split-RI-J                ....       0.830 sec  ( 13.8% of F)
  Chain of spheres X        ....       1.366 sec  ( 22.7% of F)
  XC integration            ....       1.208 sec  ( 20.0% of F)
    Basis function eval.    ....       0.052 sec  (  4.3% of XC)
    Density eval.           ....       0.050 sec  (  4.2% of XC)
    XC-Functional eval.     ....       0.054 sec  (  4.4% of XC)
    XC-Potential eval.      ....       0.075 sec  (  6.2% of XC)
Diagonalization             ....       0.178 sec  (  2.2%)
Density matrix formation    ....       0.009 sec  (  0.1%)
Population analysis         ....       0.133 sec  (  1.7%)
Initial guess               ....       0.241 sec  (  3.0%)
Orbital Transformation      ....       0.000 sec  (  0.0%)
Orbital Orthonormalization  ....       0.000 sec  (  0.0%)
DIIS solution               ....       0.364 sec  (  4.5%)
Grid generation             ....       0.382 sec  (  4.8%)

Maximum memory used throughout the entire SCF-calculation: 58.5 MB


-------------------------------------------------------------------------------
                          DFT DISPERSION CORRECTION                            
                                                                               
                              DFTD3 V3.1  Rev 1                                
                              USING zero damping                               
-------------------------------------------------------------------------------
The omegaB97X-D3 functional is recognized. Fit by Chai et al.
Active option DFTDOPT                   ...         3   

molecular C6(AA) [au] = 106.959150 


            DFT-D V3
 parameters
 s6 scaling factor         :     1.0000 
 rs6 scaling factor        :     1.2810 
 s8 scaling factor         :     1.0000 
 rs8 scaling factor        :     1.0940 
 Damping factor alpha6     :    14.0000 
 Damping factor alpha8     :    16.0000 
 ad hoc parameters k1-k3   :    16.0000     1.3333    -4.0000 

 Edisp/kcal,au: -0.005209397052  -0.000008301702 
 E6   /kcal   :  -0.000810681 
 E8   /kcal   :  -0.004398716 
 % E8         :  84.438109045 

-------------------------   ----------------
Dispersion correction           -0.000008302
-------------------------   ----------------


-------------------------   --------------------
FINAL SINGLE POINT ENERGY       -39.815482777484
-------------------------   --------------------



           ************************************************************
           *        Program running with 18 parallel MPI-processes    *
           *              working on a common directory               *
           ************************************************************
------------------------------------------------------------------------------
                         ORCA SCF GRADIENT CALCULATION
------------------------------------------------------------------------------

 ... reading COSX grid (gridx3)
Gradient of the Kohn-Sham DFT energy:
Kohn-Sham wavefunction type      ... UKS
Hartree-Fock exchange scaling    ...    0.196
Number of operators              ...    2
Number of atoms                  ...    4
Basis set dimensions             ...   64
Integral neglect threshold       ... 2.5e-11
Integral primitive cutoff        ... 2.5e-12
SHARK Integral package           ... ON

Nuc. rep. gradient       (SHARK) ... done (  0.0 sec)
HCore & Overlap gradient (SHARK) ... done (  0.0 sec)
RI-J gradient            (SHARK) ... done (  0.1 sec)
COSX-gradient                    ... done (  0.1 sec)
Exchange-correlation gradient    ... done
Dispersion correction            ... done

------------------
CARTESIAN GRADIENT
------------------

WARNING: THERE ARE 3 CONSTRAINED CARTESIAN COORDINATES
   1   C   :   -0.000025760   -0.000000048    0.056659496
   2   H   :   -0.020097766    0.000000000   -0.018919513
   3   H   :    0.010018018   -0.017422831   -0.018881236
   4   H   :    0.010017995    0.017422830   -0.018881240

Difference to translation invariance:
           :   -0.0000875134   -0.0000000480   -0.0000224927

Difference to rotation invariance:
           :    0.0000000055    0.0001245604   -0.0000000360

Norm of the cartesian gradient     ...    0.0741147794
RMS gradient                       ...    0.0213950939
MAX gradient                       ...    0.0566594959

-------
TIMINGS
-------

Total SCF gradient time            ...        0.666 sec

One electron gradient       ....       0.007 sec  (  1.0%)
RI-J Coulomb gradient       ....       0.103 sec  ( 15.5%)
COSX gradient               ....       0.117 sec  ( 17.6%)
XC gradient                 ....       0.070 sec  ( 10.5%)

Maximum memory used throughout the entire SCFGRAD-calculation: 33.6 MB
------------------------------------------------------------------------------
                         ORCA GEOMETRY RELAXATION STEP
------------------------------------------------------------------------------

Reading the OPT-File                    .... done
Getting information on internals        .... done
Copying old internal coords+grads       .... done
Making the new internal coordinates     .... (new redundants).... done
Validating the new internal coordinates .... (new redundants).... done
Calculating the B-matrix                .... done
Calculating the G,G- and P matrices     .... done
Transforming gradient to internals      .... done
Projecting the internal gradient        .... done
Number of atoms                         ....   4
Number of internal coordinates          ....   7
Current Energy                          ....   -39.815482777 Eh
Current gradient norm                   ....     0.074114779 Eh/bohr
Maximum allowed component of the step   ....  0.300
Current trust radius                    ....  0.300
Evaluating the initial hessian          ....  (Almloef) done
Projecting the Hessian                  .... done
Forming the augmented Hessian           .... done
Diagonalizing the augmented Hessian     .... done
Last element of RFO vector              ....  0.998915798
Lowest eigenvalues of augmented Hessian:
 -0.000813146  0.373574723  0.373574723  0.374387869 1000.000000000
Length of the computed step             ....  0.046604022
The final length of the internal step   ....  0.046604022
Converting the step to cartesian space:
 Initial RMS(Int)=    0.0176146647
Transforming coordinates:
 Iter   0:  RMS(Cart)=    0.0124941291 RMS(Int)=    0.0176146647
 Iter   1:  RMS(Cart)=    0.0000000001 RMS(Int)=    0.0000000002
Imposing constraints:
 Iter   0:  RMS(Cart)=    0.0000000001 RMS(Int)=    0.0000000003
CONVERGED
done
Storing new coordinates                 .... done

                                .--------------------.
          ----------------------|Geometry convergence|-------------------------
          Item                value                   Tolerance       Converged
          ---------------------------------------------------------------------
          RMS gradient        0.0065947168            0.0001000000      NO
          MAX gradient        0.0100853862            0.0003000000      NO
          RMS step            0.0176146647            0.0020000000      NO
          MAX step            0.0269383361            0.0040000000      NO
          ........................................................
          Max(Bonds)      0.0143      Max(Angles)    0.00
          Max(Dihed)        0.00      Max(Improp)    0.00
          ---------------------------------------------------------------------

The optimization has not yet converged - more geometry cycles are needed


    ---------------------------------------------------------------------------
                         Redundant Internal Coordinates
                            (Angstroem and degrees)

        Definition                    Value    dE/dq     Step     New-Value
    ----------------------------------------------------------------------------
     1. B(H   1,C   0)                1.0800 -0.010050  0.0142    1.0942   
     2. B(H   2,C   0)                1.0800 -0.010085  0.0143    1.0943   
     3. B(H   3,C   0)                1.0800 -0.010085  0.0143    1.0943   
     4. A(H   2,C   0,H   3)          103.00 -0.035663   -0.00    103.00 C 
     5. A(H   1,C   0,H   2)          103.00 -0.015225   -0.00    103.00 C 
     6. A(H   1,C   0,H   3)          103.00 -0.015225    0.00    103.00 C 
     7. I(H   1,H   3,H   2,C   0)     68.82  0.034246   -0.00     68.82   
    ----------------------------------------------------------------------------

         *************************************************************
         *                GEOMETRY OPTIMIZATION CYCLE   2            *
         *************************************************************
---------------------------------
CARTESIAN COORDINATES (ANGSTROEM)
---------------------------------
  C      0.000015    0.000000    0.004573
  H      0.988819    0.000000   -0.463989
  H     -0.494417    0.856373   -0.463996
  H     -0.494417   -0.856373   -0.463996

----------------------------
CARTESIAN COORDINATES (A.U.)
----------------------------
  NO LB      ZA    FRAG     MASS         X           Y           Z
   0 C     6.0000    0    12.011    0.000028    0.000000    0.008641
   1 H     1.0000    0     1.008    1.868598    0.000000   -0.876812
   2 H     1.0000    0     1.008   -0.934313    1.618310   -0.876826
   3 H     1.0000    0     1.008   -0.934313   -1.618310   -0.876826

--------------------------------
INTERNAL COORDINATES (ANGSTROEM)
--------------------------------
 C      0   0   0     0.000000000000     0.00000000     0.00000000
 H      1   0   0     1.094205120398     0.00000000     0.00000000
 H      1   2   0     1.094255134615   103.00000001     0.00000000
 H      1   2   3     1.094255153472   103.00000001   106.87239058

---------------------------
INTERNAL COORDINATES (A.U.)
---------------------------
 C      0   0   0     0.000000000000     0.00000000     0.00000000
 H      1   0   0     2.067748011887     0.00000000     0.00000000
 H      1   2   0     2.067842525059   103.00000001     0.00000000
 H      1   2   3     2.067842560693   103.00000001   106.87239058



           ************************************************************
           *        Program running with 18 parallel MPI-processes    *
           *              working on a common directory               *
           ************************************************************
------------------------------------------------------------------------------
                   ___                                                        
                  /   \      - P O W E R E D   B Y -                         
                 /     \                                                     
                 |  |  |   _    _      __       _____    __    __             
                 |  |  |  | |  | |    /  \     |  _  \  |  |  /  |          
                  \  \/   | |  | |   /    \    | | | |  |  | /  /          
                 / \  \   | |__| |  /  /\  \   | |_| |  |  |/  /          
                |  |  |   |  __  | /  /__\  \  |    /   |      \           
                |  |  |   | |  | | |   __   |  |    \   |  |\   \          
                \     /   | |  | | |  |  |  |  | |\  \  |  | \   \       
                 \___/    |_|  |_| |__|  |__|  |_| \__\ |__|  \__/        
                                                                              
                      - O R C A' S   B I G   F R I E N D -                    
                                      &                                       
                       - I N T E G R A L  F E E D E R -                       
                                                                              
 v1 FN, 2020, v2 2021                                                         
------------------------------------------------------------------------------


Reading SHARK input file /beegfs/scratch/ispackman/PFAS_EPR_calcs/benchmark/JChemEd_CF3_radical/CH3_radical_103.0_degrees_IN-PROGRESS/CH3_radical_103.0_degrees.SHARKINP.tmp ... ok
----------------------
SHARK INTEGRAL PACKAGE
----------------------

Number of atoms                             ...      4
Number of basis functions                   ...     64
Number of shells                            ...     28
Maximum angular momentum                    ...      3
Integral batch strategy                     ... SHARK/LIBINT Hybrid
RI-J (if used) integral strategy            ... SPLIT-RIJ (Revised 2003 algorithm where possible)
Printlevel                                  ...      1
Contraction scheme used                     ... SEGMENTED contraction
Coulomb Range Separation                    ... NOT USED
Exchange Range Separation                   ... Long Range
   Mu parameter                             ...  0.250000
   Scaling (regular/separated)              ...  0.195728  0.804272
Finite Nucleus Model                        ... NOT USED
Auxiliary Coulomb fitting basis             ... AVAILABLE
   # of basis functions in Aux-J            ...     82
   # of shells in Aux-J                     ...     30
   Maximum angular momentum in Aux-J        ...      4
Auxiliary J/K fitting basis                 ... NOT available
Auxiliary Correlation fitting basis         ... NOT available
Auxiliary 'external' fitting basis          ... NOT available
Integral threshold                          ...     2.500000e-11
Primitive cut-off                           ...     2.500000e-12
Primitive pair pre-selection threshold      ...     2.500000e-12

Calculating pre-screening integrals         ... done (  0.0 sec) Dimension = 28
Organizing shell pair data                  ... done (  0.0 sec)
Shell pair information
Total number of shell pairs                 ...       406
Shell pairs after pre-screening             ...       406
Total number of primitive shell pairs       ...       977
Primitive shell pairs kept                  ...       947
          la=0 lb=0:    120 shell pairs
          la=1 lb=0:    135 shell pairs
          la=1 lb=1:     45 shell pairs
          la=2 lb=0:     45 shell pairs
          la=2 lb=1:     27 shell pairs
          la=2 lb=2:      6 shell pairs
          la=3 lb=0:     15 shell pairs
          la=3 lb=1:      9 shell pairs
          la=3 lb=2:      3 shell pairs
          la=3 lb=3:      1 shell pairs

Calculating one electron integrals          ... done (  0.0 sec)
Calculating RI/J V-Matrix + Cholesky decomp.... done (  0.0 sec)
Calculating Nuclear repulsion               ... done (  0.0 sec) ENN=      9.631764064012 Eh

SHARK setup successfully completed in   0.3 seconds

Maximum memory used throughout the entire GTOINT-calculation: 14.0 MB


           ************************************************************
           *        Program running with 18 parallel MPI-processes    *
           *              working on a common directory               *
           ************************************************************

Diagonalization of the overlap matrix:
Smallest eigenvalue                        ... 4.777e-05
Time for diagonalization                   ...    0.002 sec
Threshold for overlap eigenvalues          ... 1.000e-08
Number of eigenvalues below threshold      ... 0
Time for construction of square roots      ...    0.008 sec
Total time needed                          ...    0.011 sec

-------------------
DFT GRID GENERATION
-------------------

General Integration Accuracy     IntAcc      ... 4.388
Radial Grid Type                 RadialGrid  ... OptM3 with GC (2021)
Angular Grid (max. ang.)         AngularGrid ... 4 (Lebedev-302)
Angular grid pruning method      GridPruning ... 4 (adaptive)
Weight generation scheme         WeightScheme... Becke
Basis function cutoff            BFCut       ... 1.0000e-11
Integration weight cutoff        WCut        ... 1.0000e-14
Angular grids for H and He will be reduced by one unit
Partially contracted basis set               ... off
Rotationally invariant grid construction     ... off

Total number of grid points                  ...    17041
Total number of batches                      ...      268
Average number of points per batch           ...       63
Average number of grid points per atom       ...     4260
Time for grid setup =    0.101 sec

--------------------
COSX GRID GENERATION
--------------------

GRIDX 1
-------
General Integration Accuracy     IntAcc      ... 3.816
Radial Grid Type                 RadialGrid  ... OptM3 with GC (2021)
Angular Grid (max. ang.)         AngularGrid ... 1 (Lebedev-50)
Angular grid pruning method      GridPruning ... 4 (adaptive)
Weight generation scheme         WeightScheme... Becke
Basis function cutoff            BFCut       ... 1.0000e-11
Integration weight cutoff        WCut        ... 1.0000e-14
Angular grids for H and He will be reduced by one unit
Partially contracted basis set               ... on
Rotationally invariant grid construction     ... off

Total number of grid points                  ...     2149
Total number of batches                      ...       36
Average number of points per batch           ...       59
Average number of grid points per atom       ...      537
UseSFitting                                  ... on

GRIDX 2
-------
General Integration Accuracy     IntAcc      ... 4.020
Radial Grid Type                 RadialGrid  ... OptM3 with GC (2021)
Angular Grid (max. ang.)         AngularGrid ... 2 (Lebedev-110)
Angular grid pruning method      GridPruning ... 4 (adaptive)
Weight generation scheme         WeightScheme... Becke
Basis function cutoff            BFCut       ... 1.0000e-11
Integration weight cutoff        WCut        ... 1.0000e-14
Angular grids for H and He will be reduced by one unit
Partially contracted basis set               ... on
Rotationally invariant grid construction     ... off

Total number of grid points                  ...     5036
Total number of batches                      ...       81
Average number of points per batch           ...       62
Average number of grid points per atom       ...     1259
UseSFitting                                  ... on

GRIDX 3
-------
General Integration Accuracy     IntAcc      ... 4.338
Radial Grid Type                 RadialGrid  ... OptM3 with GC (2021)
Angular Grid (max. ang.)         AngularGrid ... 3 (Lebedev-194)
Angular grid pruning method      GridPruning ... 4 (adaptive)
Weight generation scheme         WeightScheme... Becke
Basis function cutoff            BFCut       ... 1.0000e-11
Integration weight cutoff        WCut        ... 1.0000e-14
Angular grids for H and He will be reduced by one unit
Partially contracted basis set               ... on
Rotationally invariant grid construction     ... off

Total number of grid points                  ...    11707
Total number of batches                      ...      184
Average number of points per batch           ...       63
Average number of grid points per atom       ...     2927
UseSFitting                                  ... on

Time for X-Grid setup             =    0.246 sec

--------------
SCF ITERATIONS
--------------
ITER       Energy         Delta-E        Max-DP      RMS-DP      [F,P]     Damp
               ***  Starting incremental Fock matrix formation  ***
  0    -39.8157677147   0.000000000000 0.00889469  0.00015254  0.0035239 0.7000
  1    -39.8158052964  -0.000037581660 0.00782227  0.00013372  0.0023820 0.7000
                               ***Turning on DIIS***
  2    -39.8158304402  -0.000025143824 0.02035322  0.00034710  0.0016510 0.0000
  3    -39.8158856775  -0.000055237324 0.00452316  0.00007891  0.0006365 0.0000
               *** Restarting incremental Fock matrix formation ***
                                   *** Resetting DIIS ***
  4    -39.8158882617  -0.000002584229 0.00042725  0.00001366  0.0002929 0.0000
  5    -39.8158886908  -0.000000429044 0.00038475  0.00000751  0.0001766 0.0000
  6    -39.8158888661  -0.000000175316 0.00009403  0.00000308  0.0000363 0.0000
  7    -39.8158888816  -0.000000015479 0.00004593  0.00000113  0.0000094 0.0000
                 **** Energy Check signals convergence ****

               *****************************************************
               *                     SUCCESS                       *
               *           SCF CONVERGED AFTER   8 CYCLES          *
               *****************************************************

Old exchange energy                            =     -2.169839147 Eh
New exchange energy                            =     -2.169842508 Eh
Exchange energy change after final integration =     -0.000003360 Eh
Total energy after final integration           =    -39.815892243 Eh
Final COS-X integration done in                =     0.109 sec
Total Energy       :          -39.81589224 Eh           -1083.44551 eV
  Last Energy change         ...   -9.8418e-10  Tolerance :   1.0000e-08
  Last MAX-Density change    ...    0.0000e+00  Tolerance :   1.0000e-07
             **** THE GBW FILE WAS UPDATED (/beegfs/scratch/ispackman/PFAS_EPR_calcs/benchmark/JChemEd_CF3_radical/CH3_radical_103.0_degrees_IN-PROGRESS/CH3_radical_103.0_degrees.gbw) ****
             **** DENSITY /beegfs/scratch/ispackman/PFAS_EPR_calcs/benchmark/JChemEd_CF3_radical/CH3_radical_103.0_degrees_IN-PROGRESS/CH3_radical_103.0_degrees.scfp WAS UPDATED ****
             **** ENERGY FILE WAS UPDATED (/beegfs/scratch/ispackman/PFAS_EPR_calcs/benchmark/JChemEd_CF3_radical/CH3_radical_103.0_degrees_IN-PROGRESS/CH3_radical_103.0_degrees.en.tmp) ****
----------------------
UHF SPIN CONTAMINATION
----------------------

Warning: in a DFT calculation there is little theoretical justification to 
         calculate <S**2> as in Hartree-Fock theory. We will do it anyways
         but you should keep in mind that the values have only limited relevance

Expectation value of <S**2>     :     0.753046
Ideal value S*(S+1) for S=0.5   :     0.750000
Deviation                       :     0.003046

             **** THE GBW FILE WAS UPDATED (/beegfs/scratch/ispackman/PFAS_EPR_calcs/benchmark/JChemEd_CF3_radical/CH3_radical_103.0_degrees_IN-PROGRESS/CH3_radical_103.0_degrees.gbw) ****
             **** DENSITY /beegfs/scratch/ispackman/PFAS_EPR_calcs/benchmark/JChemEd_CF3_radical/CH3_radical_103.0_degrees_IN-PROGRESS/CH3_radical_103.0_degrees.scfp WAS UPDATED ****
Total SCF time: 0 days 0 hours 0 min 5 sec 

Maximum memory used throughout the entire SCF-calculation: 58.5 MB


-------------------------------------------------------------------------------
                          DFT DISPERSION CORRECTION                            
                                                                               
                              DFTD3 V3.1  Rev 1                                
                              USING zero damping                               
-------------------------------------------------------------------------------
-------------------------   ----------------
Dispersion correction           -0.000009220
-------------------------   ----------------


-------------------------   --------------------
FINAL SINGLE POINT ENERGY       -39.815901463090
-------------------------   --------------------



           ************************************************************
           *        Program running with 18 parallel MPI-processes    *
           *              working on a common directory               *
           ************************************************************
------------------------------------------------------------------------------
                         ORCA SCF GRADIENT CALCULATION
------------------------------------------------------------------------------

 ... reading COSX grid (gridx3)
Gradient of the Kohn-Sham DFT energy:
Kohn-Sham wavefunction type      ... UKS
Hartree-Fock exchange scaling    ...    0.196
Number of operators              ...    2
Number of atoms                  ...    4
Basis set dimensions             ...   64
Integral neglect threshold       ... 2.5e-11
Integral primitive cutoff        ... 2.5e-12
SHARK Integral package           ... ON

Nuc. rep. gradient       (SHARK) ... done (  0.0 sec)
HCore & Overlap gradient (SHARK) ... done (  0.0 sec)
RI-J gradient            (SHARK) ... done (  0.1 sec)
COSX-gradient                    ... done (  0.1 sec)
Exchange-correlation gradient    ... done
Dispersion correction            ... done

------------------
CARTESIAN GRADIENT
------------------

WARNING: THERE ARE 3 CONSTRAINED CARTESIAN COORDINATES
   1   C   :   -0.000001895    0.000000014    0.066785117
   2   H   :   -0.011034321   -0.000000008   -0.022286923
   3   H   :    0.005472924   -0.009550363   -0.022263121
   4   H   :    0.005472910    0.009550358   -0.022263127

Difference to translation invariance:
           :   -0.0000903831    0.0000000017   -0.0000280533

Difference to rotation invariance:
           :   -0.0000000005    0.0001194204   -0.0000000346

Norm of the cartesian gradient     ...    0.0794501905
RMS gradient                       ...    0.0229352944
MAX gradient                       ...    0.0667851168

-------
TIMINGS
-------

Total SCF gradient time            ...        0.621 sec

One electron gradient       ....       0.006 sec  (  1.0%)
RI-J Coulomb gradient       ....       0.112 sec  ( 18.0%)
COSX gradient               ....       0.127 sec  ( 20.5%)
XC gradient                 ....       0.073 sec  ( 11.7%)

Maximum memory used throughout the entire SCFGRAD-calculation: 33.6 MB
------------------------------------------------------------------------------
                         ORCA GEOMETRY RELAXATION STEP
------------------------------------------------------------------------------

Reading the OPT-File                    .... done
Getting information on internals        .... done
Copying old internal coords+grads       .... done
Making the new internal coordinates     .... (new redundants).... done
Validating the new internal coordinates .... (new redundants).... done
Calculating the B-matrix                .... done
Calculating the G,G- and P matrices     .... done
Transforming gradient to internals      .... done
Projecting the internal gradient        .... done
Number of atoms                         ....   4
Number of internal coordinates          ....   7
Current Energy                          ....   -39.815901463 Eh
Current gradient norm                   ....     0.079450190 Eh/bohr
Maximum allowed component of the step   ....  0.300
Current trust radius                    ....  0.300
Updating the Hessian (BFGS)             .... done
Forming the augmented Hessian           .... done
Diagonalizing the augmented Hessian     .... done
Last element of RFO vector              ....  0.999997929
Lowest eigenvalues of augmented Hessian:
 -0.000001486  0.358724714  0.373574723  0.373575497 1000.000000000
Length of the computed step             ....  0.002035034
The final length of the internal step   ....  0.002035034
Converting the step to cartesian space:
 Initial RMS(Int)=    0.0007691706
Transforming coordinates:
 Iter   0:  RMS(Cart)=    0.0005455692 RMS(Int)=    0.0007691706
 Iter   1:  RMS(Cart)=    0.0000000000 RMS(Int)=    0.0000000000
Imposing constraints:
 Iter   0:  RMS(Cart)=    0.0000000001 RMS(Int)=    0.0000000002
CONVERGED
done
Storing new coordinates                 .... done

                                .--------------------.
          ----------------------|Geometry convergence|-------------------------
          Item                value                   Tolerance       Converged
          ---------------------------------------------------------------------
          Energy change      -0.0004186856            0.0000050000      NO
          RMS gradient        0.0002759205            0.0001000000      NO
          MAX gradient        0.0004239597            0.0003000000      NO
          RMS step            0.0007691706            0.0020000000      YES
          MAX step            0.0011818644            0.0040000000      YES
          ........................................................
          Max(Bonds)      0.0006      Max(Angles)    0.00
          Max(Dihed)        0.00      Max(Improp)    0.00
          ---------------------------------------------------------------------

The optimization has not yet converged - more geometry cycles are needed


    ---------------------------------------------------------------------------
                         Redundant Internal Coordinates
                            (Angstroem and degrees)

        Definition                    Value    dE/dq     Step     New-Value
    ----------------------------------------------------------------------------
     1. B(H   1,C   0)                1.0942 -0.000416  0.0006    1.0948   
     2. B(H   2,C   0)                1.0943 -0.000424  0.0006    1.0949   
     3. B(H   3,C   0)                1.0943 -0.000424  0.0006    1.0949   
     4. A(H   2,C   0,H   3)          103.00 -0.034953    0.00    103.00 C 
     5. A(H   1,C   0,H   2)          103.00 -0.014923    0.00    103.00 C 
     6. A(H   1,C   0,H   3)          103.00 -0.014923    0.00    103.00 C 
     7. I(H   1,H   3,H   2,C   0)     68.82  0.033565   -0.00     68.82   
    ----------------------------------------------------------------------------

         *************************************************************
         *                GEOMETRY OPTIMIZATION CYCLE   3            *
         *************************************************************
---------------------------------
CARTESIAN COORDINATES (ANGSTROEM)
---------------------------------
  C      0.000018   -0.000000    0.004772
  H      0.989377   -0.000000   -0.464055
  H     -0.494697    0.856862   -0.464063
  H     -0.494697   -0.856862   -0.464063

----------------------------
CARTESIAN COORDINATES (A.U.)
----------------------------
  NO LB      ZA    FRAG     MASS         X           Y           Z
   0 C     6.0000    0    12.011    0.000034   -0.000000    0.009019
   1 H     1.0000    0     1.008    1.869651   -0.000000   -0.876936
   2 H     1.0000    0     1.008   -0.934843    1.619235   -0.876952
   3 H     1.0000    0     1.008   -0.934843   -1.619235   -0.876952

--------------------------------
INTERNAL COORDINATES (ANGSTROEM)
--------------------------------
 C      0   0   0     0.000000000000     0.00000000     0.00000000
 H      1   0   0     1.094819477319     0.00000000     0.00000000
 H      1   2   0     1.094880550342   103.00000001     0.00000000
 H      1   2   3     1.094880549978   103.00000001   106.87239059

---------------------------
INTERNAL COORDINATES (A.U.)
---------------------------
 C      0   0   0     0.000000000000     0.00000000     0.00000000
 H      1   0   0     2.068908978216     0.00000000     0.00000000
 H      1   2   0     2.069024389504   103.00000001     0.00000000
 H      1   2   3     2.069024388815   103.00000001   106.87239059



           ************************************************************
           *        Program running with 18 parallel MPI-processes    *
           *              working on a common directory               *
           ************************************************************
------------------------------------------------------------------------------
                   ___                                                        
                  /   \      - P O W E R E D   B Y -                         
                 /     \                                                     
                 |  |  |   _    _      __       _____    __    __             
                 |  |  |  | |  | |    /  \     |  _  \  |  |  /  |          
                  \  \/   | |  | |   /    \    | | | |  |  | /  /          
                 / \  \   | |__| |  /  /\  \   | |_| |  |  |/  /          
                |  |  |   |  __  | /  /__\  \  |    /   |      \           
                |  |  |   | |  | | |   __   |  |    \   |  |\   \          
                \     /   | |  | | |  |  |  |  | |\  \  |  | \   \       
[...]
  ZA   - Total nuclear charge
  QA   - Mulliken gross atomic charge
  VA   - Mayer's total valence
  BVA  - Mayer's bonded valence
  FA   - Mayer's free valence

  ATOM       NA         ZA         QA         VA         BVA        FA
  0 C      6.6757     6.0000    -0.6757     3.8195     3.0221     0.7973
  1 H      0.7751     1.0000     0.2249     1.0163     1.0151     0.0012
  2 H      0.7746     1.0000     0.2254     1.0157     1.0145     0.0012
  3 H      0.7746     1.0000     0.2254     1.0157     1.0145     0.0012

  Mayer bond orders larger than 0.100000
B(  0-C ,  1-H ) :   1.0077 B(  0-C ,  2-H ) :   1.0072 B(  0-C ,  3-H ) :   1.0072 


-------
TIMINGS
-------

Total SCF time: 0 days 0 hours 0 min 3 sec 

Total time                  ....       3.811 sec
Sum of individual times     ....       3.212 sec  ( 84.3%)

Fock matrix formation       ....       2.565 sec  ( 67.3%)
  Split-RI-J                ....       0.437 sec  ( 17.0% of F)
  Chain of spheres X        ....       0.652 sec  ( 25.4% of F)
  XC integration            ....       0.469 sec  ( 18.3% of F)
    Basis function eval.    ....       0.021 sec  (  4.6% of XC)
    Density eval.           ....       0.021 sec  (  4.5% of XC)
    XC-Functional eval.     ....       0.022 sec  (  4.7% of XC)
    XC-Potential eval.      ....       0.027 sec  (  5.8% of XC)
Diagonalization             ....       0.062 sec  (  1.6%)
Density matrix formation    ....       0.006 sec  (  0.2%)
Population analysis         ....       0.137 sec  (  3.6%)
Initial guess               ....       0.006 sec  (  0.1%)
Orbital Transformation      ....       0.000 sec  (  0.0%)
Orbital Orthonormalization  ....       0.002 sec  (  0.0%)
DIIS solution               ....       0.085 sec  (  2.2%)
Grid generation             ....       0.351 sec  (  9.2%)

Maximum memory used throughout the entire SCF-calculation: 58.5 MB


-------------------------------------------------------------------------------
                          DFT DISPERSION CORRECTION                            
                                                                               
                              DFTD3 V3.1  Rev 1                                
                              USING zero damping                               
-------------------------------------------------------------------------------
The omegaB97X-D3 functional is recognized. Fit by Chai et al.
Active option DFTDOPT                   ...         3   

molecular C6(AA) [au] = 106.996324 


            DFT-D V3
 parameters
 s6 scaling factor         :     1.0000 
 rs6 scaling factor        :     1.2810 
 s8 scaling factor         :     1.0000 
 rs8 scaling factor        :     1.0940 
 Damping factor alpha6     :    14.0000 
 Damping factor alpha8     :    16.0000 
 ad hoc parameters k1-k3   :    16.0000     1.3333    -4.0000 

 Edisp/kcal,au: -0.005813324074  -0.000009264121 
 E6   /kcal   :  -0.000904762 
 E8   /kcal   :  -0.004908562 
 % E8         :  84.436410996 

-------------------------   ----------------
Dispersion correction           -0.000009264
-------------------------   ----------------


-------------------------   --------------------
FINAL SINGLE POINT ENERGY       -39.815902246229
-------------------------   --------------------

                                *** OPTIMIZATION RUN DONE ***

                            ***************************************
                            *     ORCA property calculations      *
                            ***************************************

                                    ---------------------
                                    Active property flags
                                    ---------------------
   (+) Dipole Moment


------------------------------------------------------------------------------
                       ORCA ELECTRIC PROPERTIES CALCULATION
------------------------------------------------------------------------------

Dipole Moment Calculation                       ... on
Quadrupole Moment Calculation                   ... off
Polarizability Calculation                      ... off
GBWName                                         ... /beegfs/scratch/ispackman/PFAS_EPR_calcs/benchmark/JChemEd_CF3_radical/CH3_radical_103.0_degrees_IN-PROGRESS/CH3_radical_103.0_degrees.gbw
Electron density                                ... /beegfs/scratch/ispackman/PFAS_EPR_calcs/benchmark/JChemEd_CF3_radical/CH3_radical_103.0_degrees_IN-PROGRESS/CH3_radical_103.0_degrees.scfp
The origin for moment calculation is the CENTER OF MASS  = ( 0.000025,  0.000000 -0.169165)

-------------
DIPOLE MOMENT
-------------
                                X             Y             Z
Electronic contribution:      0.00001       0.00000       0.76594
Nuclear contribution   :     -0.00005      -0.00000      -1.05417
                        -----------------------------------------
Total Dipole Moment    :     -0.00005      -0.00000      -0.28823
                        -----------------------------------------
Magnitude (a.u.)       :      0.28823
Magnitude (Debye)      :      0.73263



--------------------
Rotational spectrum 
--------------------
 
Rotational constants in cm-1:     8.382061     8.381595     5.694422 
Rotational constants in MHz : 251287.862356 251273.886848 170714.469856 

 Dipole components along the rotational axes: 
x,y,z [a.u.] :     0.000000    -0.000057    -0.288231 
x,y,z [Debye]:     0.000000    -0.000146    -0.732625 

 


           ************************************************************
           *        Program running with 18 parallel MPI-processes    *
           *              working on a common directory               *
           ************************************************************

-------------------------------------------------------------------------------
                               ORCA SCF HESSIAN
-------------------------------------------------------------------------------

                   --------- SHARK INITIALIZATION DONE ---------

Hessian of the Kohn-Sham DFT energy:
Kohn-Sham wavefunction type                      ... UKS
Hartree-Fock exchange scaling                    ...    0.196
Number of operators                              ...    2
Number of atoms                                  ...    4
Basis set dimensions                             ...   64
Integral neglect threshold                       ... 2.5e-11
Integral primitive cutoff                        ... 2.5e-12

Setting up DFT Hessian calculations              ... 

HESS GRID
---------

General Integration Accuracy     IntAcc      ... 4.629
Radial Grid Type                 RadialGrid  ... OptM3 with GC (2021)
Angular Grid (max. ang.)         AngularGrid ... 5 (Lebedev-434)
Angular grid pruning method      GridPruning ... 4 (adaptive)
Weight generation scheme         WeightScheme... Becke
Basis function cutoff            BFCut       ... 1.0000e-11
Integration weight cutoff        WCut        ... 1.0000e-14
Angular grids for H and He will be reduced by one unit
Partially contracted basis set               ... off
Rotationally invariant grid construction     ... off

Total number of grid points                  ...    27256
Total number of batches                      ...      428
Average number of points per batch           ...       63
Average number of grid points per atom       ...     6814

Building densities                               ... done   (      0.0 sec)
Calculating rho(r) on the grid                   ... done   (      0.1 sec)
Building xc-kernel on the grid                   ... done   (      0.1 sec)
                                                     done   (      0.4 sec)

Nuclear repulsion Hessian  (SHARK)               ... done   (      0.0 sec)

----------------------------------------------
Forming right-hand sides of CP-SCF equations     ...
----------------------------------------------
One electron integral derivatives  (SHARK)       ... done   (      0.0 sec)
Transforming the overlap derivative matrices     ... done   (      0.0 sec)
Making the Q(x) pseudodensities                  ... done   (      0.0 sec)
Adding the E*S(x)*S(y) terms to the Hessian      ... done   (      0.0 sec)
Calculating energy weighted overlap derivatives  ... done   (      0.0 sec)
Two electron integral derivatives (SHARK-RI)     ... done   (      0.5 sec)
Exchange-correlation integral derivatives        ... done   (      0.4 sec)
tr(F(y)Q(x)) contribution to the Hessian         ... done   (      0.0 sec)
Response fock operator R(S(x)) (SHARK-RIJCOSX)   ... done   (      0.5 sec)
XC Response fock operator R(S(x))                ... done   (      0.1 sec)
tr(F(y)S(x)) contribution to the Hessian         ... done   (      0.0 sec)
Transforming and finalizing RHSs                 ... done   (      0.0 sec)

----------------------------------------------
Solving the CP-SCF equations (RIJCOSX)           ...
----------------------------------------------
     CP-SCF ITERATION   0:   1.1451e-01 (   0.3 sec   0/ 12 done)
     CP-SCF ITERATION   1:   2.8831e-02 (   0.3 sec   0/ 12 done)
     CP-SCF ITERATION   2:   9.3923e-03 (   0.3 sec   0/ 12 done)
     CP-SCF ITERATION   3:   3.1927e-03 (   0.3 sec   0/ 12 done)
     CP-SCF ITERATION   4:   5.3957e-04 (   0.3 sec   1/ 12 done)
     CP-SCF ITERATION   5:   1.1677e-04 (   0.3 sec  11/ 12 done)
     CP-SCF ITERATION   6:   2.5518e-05 (   0.2 sec  12/ 12 done)
                    *** THE CP-SCF HAS CONVERGED ***

                                                 ... done   (      2.1 sec)
Forming perturbed density Hessian contributions  ... done   (      0.0 sec)
2nd integral derivative contribs (SHARK-RI)      ... done   (      0.7 sec)
Exchange-correlation Hessian                     ... done   (      0.3 sec)
Dispersion correction in the Hessian             ... done   (      0.1 sec)
Dipole derivatives                               ... (center of mass:  0.000025,  0.000000 -0.169165)done   (      0.1 sec)

Total SCF Hessian time: 0 days 0 hours 0 min 5 sec 

Writing the Hessian file to the disk             ... done


Maximum memory used throughout the entire SCFHESS-calculation: 109.4 MB

-----------------------
VIBRATIONAL FREQUENCIES
-----------------------

Scaling factor for frequencies =  1.000000000  (already applied!)

   0:         0.00 cm**-1
   1:         0.00 cm**-1
   2:         0.00 cm**-1
   3:         0.00 cm**-1
   4:         0.00 cm**-1
   5:         0.00 cm**-1
   6:      1271.61 cm**-1
   7:      1402.06 cm**-1
   8:      1404.79 cm**-1
   9:      3056.79 cm**-1
  10:      3120.23 cm**-1
  11:      3120.23 cm**-1


------------
NORMAL MODES
------------

These modes are the Cartesian displacements weighted by the diagonal matrix
M(i,i)=1/sqrt(m[i]) where m[i] is the mass of the displaced atom
Thus, these vectors are normalized but *not* orthogonal

                  0          1          2          3          4          5    
      0       0.000000   0.000000   0.000000   0.000000   0.000000   0.000000
      1       0.000000   0.000000   0.000000   0.000000   0.000000   0.000000
      2       0.000000   0.000000   0.000000   0.000000   0.000000   0.000000
      3       0.000000   0.000000   0.000000   0.000000   0.000000   0.000000
      4       0.000000   0.000000   0.000000   0.000000   0.000000   0.000000
      5       0.000000   0.000000   0.000000   0.000000   0.000000   0.000000
      6       0.000000   0.000000   0.000000   0.000000   0.000000   0.000000
      7       0.000000   0.000000   0.000000   0.000000   0.000000   0.000000
      8       0.000000   0.000000   0.000000   0.000000   0.000000   0.000000
      9       0.000000   0.000000   0.000000   0.000000   0.000000   0.000000
     10       0.000000   0.000000   0.000000   0.000000   0.000000   0.000000
     11       0.000000   0.000000   0.000000   0.000000   0.000000   0.000000
                  6          7          8          9         10         11    
      0      -0.000235   0.000000   0.074512  -0.000046  -0.088300  -0.001679
      1       0.000000   0.074511  -0.000000  -0.000000  -0.001679   0.088303
      2      -0.130935   0.000000  -0.000377  -0.050045   0.000017   0.000000
      3       0.238501  -0.000000   0.157022  -0.540883   0.741390   0.014097
      4      -0.000001  -0.748255   0.000001  -0.000000  -0.000753   0.039601
      5       0.519205  -0.000000   0.281983   0.198608  -0.332454  -0.006321
      6      -0.117854  -0.391681  -0.522442   0.270716   0.148956   0.340996
      7       0.208331  -0.069797  -0.391077  -0.468951  -0.327388  -0.552322
      8       0.520489   0.242890  -0.138748   0.198858   0.160649   0.291016
      9      -0.117853   0.391680  -0.522443   0.270717   0.161813  -0.335084
     10      -0.208331  -0.069796   0.391077   0.468953   0.348149  -0.539473
     11       0.520489  -0.242892  -0.138747   0.198859   0.171597  -0.284696


-----------
IR SPECTRUM
-----------

 Mode   freq       eps      Int      T**2         TX        TY        TZ
       cm**-1   L/(mol*cm) km/mol    a.u.
----------------------------------------------------------------------------
  6:   1271.61   0.002033   10.28  0.000499  ( 0.000138 -0.000000  0.022338)
  7:   1402.06   0.000814    4.11  0.000181  (-0.000000 -0.013460 -0.000000)
  8:   1404.79   0.000811    4.10  0.000180  (-0.013425  0.000000 -0.000027)
  9:   3056.79   0.000017    0.08  0.000002  ( 0.000013 -0.000000 -0.001308)
 10:   3120.23   0.006224   31.46  0.000623  (-0.024946 -0.000480 -0.000035)
 11:   3120.23   0.006378   32.23  0.000638  (-0.000474  0.025252 -0.000001)

* The epsilon (eps) is given for a Dirac delta lineshape.
** The dipole moment derivative (T) already includes vibrational overlap.

The first frequency considered to be a vibration is 6
The total number of vibrations considered is 6


--------------------------
THERMOCHEMISTRY AT 298.15K
--------------------------

Temperature         ... 298.15 K
Pressure            ... 1.00 atm
Total Mass          ... 15.03 AMU

Throughout the following assumptions are being made:
  (1) The electronic state is orbitally nondegenerate
      but the spin degeneracy is treated
  (2) There are no thermally accessible electronically excited states
  (3) Hindered rotations indicated by low frequency modes are not
      treated as such but are treated as vibrations and this may
      cause some error
  (4) All equations used are the standard statistical mechanics
      equations for an ideal gas
  (5) All vibrations are strictly harmonic

freq.    1271.61  E(vib)   ...       0.01 
freq.    1402.06  E(vib)   ...       0.00 
freq.    1404.79  E(vib)   ...       0.00 
freq.    3056.79  E(vib)   ...       0.00 
freq.    3120.23  E(vib)   ...       0.00 
freq.    3120.23  E(vib)   ...       0.00 

------------
INNER ENERGY
------------

The inner energy is: U= E(el) + E(ZPE) + E(vib) + E(rot) + E(trans)
    E(el)   - is the total energy from the electronic structure calculation
              = E(kin-el) + E(nuc-el) + E(el-el) + E(nuc-nuc)
    E(ZPE)  - the the zero temperature vibrational energy from the frequency calculation
    E(vib)  - the the finite temperature correction to E(ZPE) due to population
              of excited vibrational states
    E(rot)  - is the rotational thermal energy
    E(trans)- is the translational thermal energy

Summary of contributions to the inner energy U:
Electronic energy                ...    -39.81590225 Eh
Zero point energy                ...      0.03047209 Eh      19.12 kcal/mol
Thermal vibrational correction   ...      0.00002723 Eh       0.02 kcal/mol
Thermal rotational correction    ...      0.00141627 Eh       0.89 kcal/mol
Thermal translational correction ...      0.00141627 Eh       0.89 kcal/mol
-----------------------------------------------------------------------
Total thermal energy                    -39.78257038 Eh


Summary of corrections to the electronic energy:
(perhaps to be used in another calculation)
Total thermal correction                  0.00285978 Eh       1.79 kcal/mol
Non-thermal (ZPE) correction              0.03047209 Eh      19.12 kcal/mol
-----------------------------------------------------------------------
Total correction                          0.03333187 Eh      20.92 kcal/mol


--------
ENTHALPY
--------

The enthalpy is H = U + kB*T
                kB is Boltzmann's constant
Total free energy                 ...    -39.78257038 Eh 
Thermal Enthalpy correction       ...      0.00094421 Eh       0.59 kcal/mol
-----------------------------------------------------------------------
Total Enthalpy                    ...    -39.78162617 Eh


Note: Rotational entropy computed according to Herzberg 
Infrared and Raman Spectra, Chapter V,1, Van Nostrand Reinhold, 1945 
Point Group:  C3v, Symmetry Number:   3  
Rotational constants in cm-1:     8.382061     8.381595     5.694422 

Vibrational entropy computed according to the QRRHO of S. Grimme
Chem.Eur.J. 2012 18 9955


-------
ENTROPY
-------

The entropy contributions are T*S = T*(S(el)+S(vib)+S(rot)+S(trans))
     S(el)   - electronic entropy
     S(vib)  - vibrational entropy
     S(rot)  - rotational entropy
     S(trans)- translational entropy
The entropies will be listed as multiplied by the temperature to get
units of energy

Electronic entropy                ...      0.00065446 Eh      0.41 kcal/mol
Vibrational entropy               ...      0.00003145 Eh      0.02 kcal/mol
Rotational entropy                ...      0.00564494 Eh      3.54 kcal/mol
Translational entropy             ...      0.01618771 Eh     10.16 kcal/mol
-----------------------------------------------------------------------
Final entropy term                ...      0.02251855 Eh     14.13 kcal/mol

In case the symmetry of your molecule has not been determined correctly
or in case you have a reason to use a different symmetry number we print 
out the resulting rotational entropy values for sn=1,12 :
 --------------------------------------------------------
|  sn= 1 | S(rot)=       0.00668222 Eh      4.19 kcal/mol|
|  sn= 2 | S(rot)=       0.00602777 Eh      3.78 kcal/mol|
|  sn= 3 | S(rot)=       0.00564494 Eh      3.54 kcal/mol|
|  sn= 4 | S(rot)=       0.00537331 Eh      3.37 kcal/mol|
|  sn= 5 | S(rot)=       0.00516262 Eh      3.24 kcal/mol|
|  sn= 6 | S(rot)=       0.00499048 Eh      3.13 kcal/mol|
|  sn= 7 | S(rot)=       0.00484493 Eh      3.04 kcal/mol|
|  sn= 8 | S(rot)=       0.00471885 Eh      2.96 kcal/mol|
|  sn= 9 | S(rot)=       0.00460765 Eh      2.89 kcal/mol|
|  sn=10 | S(rot)=       0.00450817 Eh      2.83 kcal/mol|
|  sn=11 | S(rot)=       0.00441818 Eh      2.77 kcal/mol|
|  sn=12 | S(rot)=       0.00433602 Eh      2.72 kcal/mol|
 --------------------------------------------------------


-------------------
GIBBS FREE ENERGY
-------------------

The Gibbs free energy is G = H - T*S

Total enthalpy                    ...    -39.78162617 Eh 
Total entropy correction          ...     -0.02251855 Eh    -14.13 kcal/mol
-----------------------------------------------------------------------
Final Gibbs free energy         ...    -39.80414472 Eh

For completeness - the Gibbs free energy minus the electronic energy
G-E(el)                           ...      0.01175753 Eh      7.38 kcal/mol


Timings for individual modules:

Sum of individual times         ...       60.526 sec (=   1.009 min)
GTO integral calculation        ...       10.873 sec (=   0.181 min)  18.0 %
SCF iterations                  ...       31.845 sec (=   0.531 min)  52.6 %
SCF Gradient evaluation         ...        9.289 sec (=   0.155 min)  15.3 %
Geometry relaxation             ...        0.166 sec (=   0.003 min)   0.3 %
Analytical frequency calculation...        8.353 sec (=   0.139 min)  13.8 %
                             ****ORCA TERMINATED NORMALLY****
TOTAL RUN TIME: 0 days 0 hours 1 minutes 11 seconds 387 msec

slurmID:    32260097
totalRuntime[s]:    71.425612918
