
                                 *****************
                                 * O   R   C   A *
                                 *****************

                                            #,                                       
                                            ###                                      
                                            ####                                     
                                            #####                                    
                                            ######                                   
                                           ########,                                 
                                     ,,################,,,,,                         
                               ,,#################################,,                 
                          ,,##########################################,,             
                       ,#########################################, ''#####,          
                    ,#############################################,,   '####,        
                  ,##################################################,,,,####,       
                ,###########''''           ''''###############################       
              ,#####''   ,,,,##########,,,,          '''####'''          '####       
            ,##' ,,,,###########################,,,                        '##       
           ' ,,###''''                  '''############,,,                           
         ,,##''                                '''############,,,,        ,,,,,,###''
      ,#''                                            '''#######################'''  
     '                                                          ''''####''''         
             ,#######,   #######,   ,#######,      ##                                
            ,#'     '#,  ##    ##  ,#'     '#,    #''#        ######   ,####,        
            ##       ##  ##   ,#'  ##            #'  '#       #        #'  '#        
            ##       ##  #######   ##           ,######,      #####,   #    #        
            '#,     ,#'  ##    ##  '#,     ,#' ,#      #,         ##   #,  ,#        
             '#######'   ##     ##  '#######'  #'      '#     #####' # '####'        



                  #######################################################
                  #                        -***-                        #
                  #          Department of theory and spectroscopy      #
                  #    Directorship and core code : Frank Neese         #
                  #        Max Planck Institute fuer Kohlenforschung    #
                  #                Kaiser Wilhelm Platz 1               #
                  #                 D-45470 Muelheim/Ruhr               #
                  #                      Germany                        #
                  #                                                     #
                  #                  All rights reserved                #
                  #                        -***-                        #
                  #######################################################


                         Program Version 5.0.4 -  RELEASE  -


 With contributions from (in alphabetic order):
   Daniel Aravena         : Magnetic Suceptibility
   Michael Atanasov       : Ab Initio Ligand Field Theory (pilot matlab implementation)
   Alexander A. Auer      : GIAO ZORA, VPT2 properties, NMR spectrum
   Ute Becker             : Parallelization
   Giovanni Bistoni       : ED, misc. LED, open-shell LED, HFLD
   Martin Brehm           : Molecular dynamics
   Dmytro Bykov           : SCF Hessian
   Vijay G. Chilkuri      : MRCI spin determinant printing, contributions to CSF-ICE
   Dipayan Datta          : RHF DLPNO-CCSD density
   Achintya Kumar Dutta   : EOM-CC, STEOM-CC
   Dmitry Ganyushin       : Spin-Orbit,Spin-Spin,Magnetic field MRCI
   Miquel Garcia          : C-PCM and meta-GGA Hessian, CC/C-PCM, Gaussian charge scheme
   Yang Guo               : DLPNO-NEVPT2, F12-NEVPT2, CIM, IAO-localization
   Andreas Hansen         : Spin unrestricted coupled pair/coupled cluster methods
   Benjamin Helmich-Paris : MC-RPA, TRAH-SCF, COSX integrals
   Lee Huntington         : MR-EOM, pCC
   Robert Izsak           : Overlap fitted RIJCOSX, COSX-SCS-MP3, EOM
   Marcus Kettner         : VPT2
   Christian Kollmar      : KDIIS, OOCD, Brueckner-CCSD(T), CCSD density, CASPT2, CASPT2-K
   Simone Kossmann        : Meta GGA functionals, TD-DFT gradient, OOMP2, MP2 Hessian
   Martin Krupicka        : Initial AUTO-CI
   Lucas Lang             : DCDCAS
   Marvin Lechner         : AUTO-CI (C++ implementation), FIC-MRCC
   Dagmar Lenk            : GEPOL surface, SMD
   Dimitrios Liakos       : Extrapolation schemes; Compound Job, initial MDCI parallelization
   Dimitrios Manganas     : Further ROCIS development; embedding schemes
   Dimitrios Pantazis     : SARC Basis sets
   Anastasios Papadopoulos: AUTO-CI, single reference methods and gradients
   Taras Petrenko         : DFT Hessian,TD-DFT gradient, ASA, ECA, R-Raman, ABS, FL, XAS/XES, NRVS
   Peter Pinski           : DLPNO-MP2, DLPNO-MP2 Gradient
   Christoph Reimann      : Effective Core Potentials
   Marius Retegan         : Local ZFS, SOC
   Christoph Riplinger    : Optimizer, TS searches, QM/MM, DLPNO-CCSD(T), (RO)-DLPNO pert. Triples
   Tobias Risthaus        : Range-separated hybrids, TD-DFT gradient, RPA, STAB
   Michael Roemelt        : Original ROCIS implementation
   Masaaki Saitow         : Open-shell DLPNO-CCSD energy and density
   Barbara Sandhoefer     : DKH picture change effects
   Avijit Sen             : IP-ROCIS
   Kantharuban Sivalingam : CASSCF convergence, NEVPT2, FIC-MRCI
   Bernardo de Souza      : ESD, SOC TD-DFT
   Georgi Stoychev        : AutoAux, RI-MP2 NMR, DLPNO-MP2 response
   Willem Van den Heuvel  : Paramagnetic NMR
   Boris Wezisla          : Elementary symmetry handling
   Frank Wennmohs         : Technical directorship


 We gratefully acknowledge several colleagues who have allowed us to
 interface, adapt or use parts of their codes:
   Stefan Grimme, W. Hujo, H. Kruse, P. Pracht,  : VdW corrections, initial TS optimization,
                  C. Bannwarth, S. Ehlert          DFT functionals, gCP, sTDA/sTD-DF
   Ed Valeev, F. Pavosevic, A. Kumar             : LibInt (2-el integral package), F12 methods
   Garnet Chan, S. Sharma, J. Yang, R. Olivares  : DMRG
   Ulf Ekstrom                                   : XCFun DFT Library
   Mihaly Kallay                                 : mrcc  (arbitrary order and MRCC methods)
   Jiri Pittner, Ondrej Demel                    : Mk-CCSD
   Frank Weinhold                                : gennbo (NPA and NBO analysis)
   Christopher J. Cramer and Donald G. Truhlar   : smd solvation model
   Lars Goerigk                                  : TD-DFT with DH, B97 family of functionals
   V. Asgeirsson, H. Jonsson                     : NEB implementation
   FAccTs GmbH                                   : IRC, NEB, NEB-TS, DLPNO-Multilevel, CI-OPT
                                                   MM, QMMM, 2- and 3-layer-ONIOM, Crystal-QMMM,
                                                   LR-CPCM, SF, NACMEs, symmetry and pop. for TD-DFT,
                                                   nearIR, NL-DFT gradient (VV10), updates on ESD,
                                                   ML-optimized integration grids
   S Lehtola, MJT Oliveira, MAL Marques          : LibXC Library
   Liviu Ungur et al                             : ANISO software


 Your calculation uses the libint2 library for the computation of 2-el integrals
 For citations please refer to: http://libint.valeyev.net

 Your ORCA version has been built with support for libXC version: 5.1.0
 For citations please refer to: https://tddft.org/programs/libxc/

 This ORCA versions uses:
   CBLAS   interface :  Fast vector & matrix operations
   LAPACKE interface :  Fast linear algebra routines
   SCALAPACK package :  Parallel linear algebra routines
   Shared memory     :  Shared parallel matrices
   BLAS/LAPACK       :  OpenBLAS 0.3.15  USE64BITINT DYNAMIC_ARCH NO_AFFINITY SkylakeX SINGLE_THREADED
        Core in use  :  SkylakeX
   Copyright (c) 2011-2014, The OpenBLAS Project


Your calculation utilizes the atom-pairwise dispersion correction
with the zero-damping scheme (D30)
Cite in your paper:
S.Grimme, J.Antony, S.Ehrlich and H.Krieg, J.Chem.Phys., 132, (2010), 154104 
   

XCFun DFT library Copyright 2009-2010 Ulf Ekstrom and contributors.
See http://admol.org/xcfun for more information.
This is free software; see the source code for copying conditions.
There is ABSOLUTELY NO WARRANTY; not even for MERCHANTABILITY or FITNESS FOR A PARTICULAR PURPOSE.
For details see the documentation.
Scientific users of this library should cite U. Ekstrom, L. Visscher, R. Bast, A. J. Thorvaldsen and K. Ruud;
J.Chem.Theor.Comp. 2010, DOI: 10.1021/ct100117s
XCFun Version 0.99 

================================================================================

----- Orbital basis set information -----
Your calculation utilizes the basis: def2-TZVPD
   F. Weigend and R. Ahlrichs, Phys. Chem. Chem. Phys. 7, 3297 (2005).
   D. Rappoport and F. Furche, J. Chem. Phys. 133 134105 (2010).

----- AuxJ basis set information -----
Your calculation utilizes the auxiliary basis: def2/J
   F. Weigend, Phys. Chem. Chem. Phys. 8, 1057 (2006).

================================================================================
                                        WARNINGS
                       Please study these warnings very carefully!
================================================================================


WARNING: Geometry Optimization
  ===> : Switching off AutoStart
         For restart on a previous wavefunction, please use MOREAD

INFO   : the flag for use of the SHARK integral package has been found!

================================================================================
                                       INPUT FILE
================================================================================
NAME = /beegfs/scratch/ispackman/PFAS_EPR_calcs/benchmark/JChemEd_CF3_radical/CH3_radical_111.5_degrees_IN-PROGRESS/CH3_radical_111.5_degrees.inp
|  1> ! UKS TightSCF wB97x-D3 def2-TZVPD xyzfile opt freq
|  2> 
|  3> # CH3 radical 111.5 degrees fixed
|  4> 
|  5> %maxcore 1000
|  6> %pal
|  7> nprocs 18
|  8> end
|  9> 
| 10> %geom Constraints
| 11>         { A * 0 * C }
| 12>     end
| 13> end
| 14> * xyz 0 2
| 15> C 0.00 0.00 0.00
| 16> H 1.0308207186 0.0000000000 -0.3221934917
| 17> H -0.5154103593 0.8927169291 -0.3221934917
| 18> H -0.5154103593 -0.8927169291 -0.3221934917
| 19> **                         ****END OF INPUT****
================================================================================

                       *****************************
                       * Geometry Optimization Run *
                       *****************************

Geometry optimization settings:
Update method            Update   .... BFGS
Choice of coordinates    CoordSys .... Z-matrix Internals
Initial Hessian          InHess   .... Almoef's Model

Convergence Tolerances:
Energy Change            TolE     ....  5.0000e-06 Eh
Max. Gradient            TolMAXG  ....  3.0000e-04 Eh/bohr
RMS Gradient             TolRMSG  ....  1.0000e-04 Eh/bohr
Max. Displacement        TolMAXD  ....  4.0000e-03 bohr
RMS Displacement         TolRMSD  ....  2.0000e-03 bohr
Strict Convergence                ....  False
------------------------------------------------------------------------------
                        ORCA OPTIMIZATION COORDINATE SETUP
------------------------------------------------------------------------------

The optimization will be done in new redundant internal coordinates
Making redundant internal coordinates   ...  (new redundants) done
Evaluating the initial hessian          ...  (Almloef) done
Evaluating the coordinates              ...  done
Calculating the B-matrix                .... done
Calculating the G-matrix                .... done
Diagonalizing the G-matrix              .... done
Imposing constraints:
 Iter   0:  RMS(Cart)=    0.0000000000 RMS(Int)=    0.0000000000
CONVERGED
Will constrain atom 0 coordinate 1 
Will constrain atom 0 coordinate 2 
Will constrain atom 1 coordinate 2 
The first mode is                       ....    1
The number of degrees of freedom        ....    6
Storing new coordinates                 .... done

    -----------------------------------------------------------------
                    Redundant Internal Coordinates


    -----------------------------------------------------------------
         Definition                    Initial Value    Approx d2E/dq
    -----------------------------------------------------------------
      1. B(H   1,C   0)                  1.0800         0.373575   
      2. B(H   2,C   0)                  1.0800         0.373575   
      3. B(H   3,C   0)                  1.0800         0.373575   
      4. A(H   2,C   0,H   3)          111.5000         0.294224 C 
      5. A(H   1,C   0,H   2)          111.5000         0.294224 C 
      6. A(H   1,C   0,H   3)          111.5000         0.294224 C 
      7. I(H   1,H   3,H   2,C   0)     49.3675         0.006189   
    -----------------------------------------------------------------

Number of atoms                         .... 4
Number of degrees of freedom            .... 7

         *************************************************************
         *                GEOMETRY OPTIMIZATION CYCLE   1            *
         *************************************************************
---------------------------------
CARTESIAN COORDINATES (ANGSTROEM)
---------------------------------
  C      0.000000    0.000000    0.000000
  H      1.030821    0.000000   -0.322193
  H     -0.515410    0.892717   -0.322193
  H     -0.515410   -0.892717   -0.322193

----------------------------
CARTESIAN COORDINATES (A.U.)
----------------------------
  NO LB      ZA    FRAG     MASS         X           Y           Z
   0 C     6.0000    0    12.011    0.000000    0.000000    0.000000
   1 H     1.0000    0     1.008    1.947969    0.000000   -0.608857
   2 H     1.0000    0     1.008   -0.973984    1.686991   -0.608857
   3 H     1.0000    0     1.008   -0.973984   -1.686991   -0.608857

--------------------------------
INTERNAL COORDINATES (ANGSTROEM)
--------------------------------
 C      0   0   0     0.000000000000     0.00000000     0.00000000
 H      1   0   0     1.079999999995     0.00000000     0.00000000
 H      1   2   0     1.080000000032   111.50000000     0.00000000
 H      1   2   3     1.080000000032   111.50000000   125.34756973

---------------------------
INTERNAL COORDINATES (A.U.)
---------------------------
 C      0   0   0     0.000000000000     0.00000000     0.00000000
 H      1   0   0     2.040904224625     0.00000000     0.00000000
 H      1   2   0     2.040904224696   111.50000000     0.00000000
 H      1   2   3     2.040904224696   111.50000000   125.34756973

---------------------
BASIS SET INFORMATION
---------------------
There are 2 groups of distinct atoms

 Group   1 Type C   : 12s6p3d1f contracted to 6s3p3d1f pattern {621111/411/111/1}
 Group   2 Type H   : 5s2p contracted to 3s2p pattern {311/11}

Atom   0C    basis set group =>   1
Atom   1H    basis set group =>   2
Atom   2H    basis set group =>   2
Atom   3H    basis set group =>   2
---------------------------------
AUXILIARY/J BASIS SET INFORMATION
---------------------------------
There are 2 groups of distinct atoms

 Group   1 Type C   : 12s5p4d2f1g contracted to 6s4p3d1f1g pattern {711111/2111/211/2/1}
 Group   2 Type H   : 5s2p1d contracted to 3s1p1d pattern {311/2/1}

Atom   0C    basis set group =>   1
Atom   1H    basis set group =>   2
Atom   2H    basis set group =>   2
Atom   3H    basis set group =>   2


           ************************************************************
           *        Program running with 18 parallel MPI-processes    *
           *              working on a common directory               *
           ************************************************************
------------------------------------------------------------------------------
                           ORCA GTO INTEGRAL CALCULATION
                           -- RI-GTO INTEGRALS CHOSEN --
------------------------------------------------------------------------------
------------------------------------------------------------------------------
                   ___                                                        
                  /   \      - P O W E R E D   B Y -                         
                 /     \                                                     
                 |  |  |   _    _      __       _____    __    __             
                 |  |  |  | |  | |    /  \     |  _  \  |  |  /  |          
                  \  \/   | |  | |   /    \    | | | |  |  | /  /          
                 / \  \   | |__| |  /  /\  \   | |_| |  |  |/  /          
                |  |  |   |  __  | /  /__\  \  |    /   |      \           
                |  |  |   | |  | | |   __   |  |    \   |  |\   \          
                \     /   | |  | | |  |  |  |  | |\  \  |  | \   \       
                 \___/    |_|  |_| |__|  |__|  |_| \__\ |__|  \__/        
                                                                              
                      - O R C A' S   B I G   F R I E N D -                    
                                      &                                       
                       - I N T E G R A L  F E E D E R -                       
                                                                              
 v1 FN, 2020, v2 2021                                                         
------------------------------------------------------------------------------


Reading SHARK input file /beegfs/scratch/ispackman/PFAS_EPR_calcs/benchmark/JChemEd_CF3_radical/CH3_radical_111.5_degrees_IN-PROGRESS/CH3_radical_111.5_degrees.SHARKINP.tmp ... ok
----------------------
SHARK INTEGRAL PACKAGE
----------------------

Number of atoms                             ...      4
Number of basis functions                   ...     64
Number of shells                            ...     28
Maximum angular momentum                    ...      3
Integral batch strategy                     ... SHARK/LIBINT Hybrid
RI-J (if used) integral strategy            ... SPLIT-RIJ (Revised 2003 algorithm where possible)
Printlevel                                  ...      1
Contraction scheme used                     ... SEGMENTED contraction
Coulomb Range Separation                    ... NOT USED
Exchange Range Separation                   ... Long Range
   Mu parameter                             ...  0.250000
   Scaling (regular/separated)              ...  0.195728  0.804272
Finite Nucleus Model                        ... NOT USED
Auxiliary Coulomb fitting basis             ... AVAILABLE
   # of basis functions in Aux-J            ...     82
   # of shells in Aux-J                     ...     30
   Maximum angular momentum in Aux-J        ...      4
Auxiliary J/K fitting basis                 ... NOT available
Auxiliary Correlation fitting basis         ... NOT available
Auxiliary 'external' fitting basis          ... NOT available
Integral threshold                          ...     2.500000e-11
Primitive cut-off                           ...     2.500000e-12
Primitive pair pre-selection threshold      ...     2.500000e-12

Calculating pre-screening integrals         ... done (  0.0 sec) Dimension = 28
Organizing shell pair data                  ... done (  0.0 sec)
Shell pair information
Total number of shell pairs                 ...       406
Shell pairs after pre-screening             ...       406
Total number of primitive shell pairs       ...       977
Primitive shell pairs kept                  ...       944
          la=0 lb=0:    120 shell pairs
          la=1 lb=0:    135 shell pairs
          la=1 lb=1:     45 shell pairs
          la=2 lb=0:     45 shell pairs
          la=2 lb=1:     27 shell pairs
          la=2 lb=2:      6 shell pairs
          la=3 lb=0:     15 shell pairs
          la=3 lb=1:      9 shell pairs
          la=3 lb=2:      3 shell pairs
          la=3 lb=3:      1 shell pairs

Calculating one electron integrals          ... done (  0.0 sec)
Calculating RI/J V-Matrix + Cholesky decomp.... done (  0.2 sec)
Calculating Nuclear repulsion               ... done (  0.0 sec) ENN=      9.708777480882 Eh

SHARK setup successfully completed in   0.6 seconds

Maximum memory used throughout the entire GTOINT-calculation: 14.0 MB


           ************************************************************
           *        Program running with 18 parallel MPI-processes    *
           *              working on a common directory               *
           ************************************************************
-------------------------------------------------------------------------------
                                 ORCA SCF
-------------------------------------------------------------------------------

------------
SCF SETTINGS
------------
Hamiltonian:
 Density Functional     Method          .... DFT(GTOs)
 Exchange Functional    Exchange        .... WB97X-D3
 Correlation Functional Correlation     .... WB97X-D3
 Gradients option       PostSCFGGA      .... off
 Hybrid DFT is turned on
   Fraction HF Exchange ScalHFX         ....  0.195728
   Scaling of DF-GGA-X  ScalDFX         ....  0.000000
   Scaling of DF-GGA-C  ScalDFC         ....  1.000000
   Scaling of DF-LDA-C  ScalLDAC        ....  1.000000
   Perturbative correction              ....  0.000000
   Density functional embedding theory  .... OFF
 Long-range corrected/Screened/Range-Separated Hybrid DFT is turned on
   Amount of maximum screened exact exchange              ....  0.804272
   Range separation parameter mu (erf(mu*r12)/r12)        ....  0.250000
 RI-approximation to the Coulomb term is turned on
   Number of AuxJ basis functions       .... 82
   RIJ-COSX (HFX calculated with COS-X)).... on


General Settings:
 Integral files         IntName         .... /beegfs/scratch/ispackman/PFAS_EPR_calcs/benchmark/JChemEd_CF3_radical/CH3_radical_111.5_degrees_IN-PROGRESS/CH3_radical_111.5_degrees
 Hartree-Fock type      HFTyp           .... UHF
 Total Charge           Charge          ....    0
 Multiplicity           Mult            ....    2
 Number of Electrons    NEL             ....    9
 Basis Dimension        Dim             ....   64
 Nuclear Repulsion      ENuc            ....      9.7087774809 Eh

Convergence Acceleration:
 DIIS                   CNVDIIS         .... on
   Start iteration      DIISMaxIt       ....    12
   Startup error        DIISStart       ....  0.200000
   # of expansion vecs  DIISMaxEq       ....     5
   Bias factor          DIISBfac        ....   1.050
   Max. coefficient     DIISMaxC        ....  10.000
 Trust-Rad. Augm. Hess. CNVTRAH         .... auto
   Auto Start mean grad. ratio tolernc. ....  1.125000
   Auto Start start iteration           ....    20
   Auto Start num. interpolation iter.  ....    10
   Max. Number of Micro iterations      ....    16
   Max. Number of Macro iterations      .... Maxiter - #DIIS iter
   Number of Davidson start vectors     ....     2
   Converg. threshold I  (grad. norm)   ....   1.000e-05
   Converg. threshold II (energy diff.) ....   1.000e-08
   Grad. Scal. Fac. for Micro threshold ....   0.100
   Minimum threshold for Micro iter.    ....   0.010
   NR start threshold (gradient norm)   ....   0.001
   Initial trust radius                 ....   0.400
   Minimum AH scaling param. (alpha)    ....   1.000
   Maximum AH scaling param. (alpha)    .... 1000.000
   Orbital update algorithm             .... Taylor
   White noise on init. David. guess    .... on
   Maximum white noise                  ....   0.010
   Quad. conv. algorithm                .... NR
 SOSCF                  CNVSOSCF        .... off
 Level Shifting         CNVShift        .... on
   Level shift para.    LevelShift      ....    0.2500
   Turn off err/grad.   ShiftErr        ....    0.0010
 Zerner damping         CNVZerner       .... off
 Static damping         CNVDamp         .... on
   Fraction old density DampFac         ....    0.7000
   Max. Damping (<1)    DampMax         ....    0.9800
   Min. Damping (>=0)   DampMin         ....    0.0000
   Turn off err/grad.   DampErr         ....    0.1000
 Fernandez-Rico         CNVRico         .... off

SCF Procedure:
 Maximum # iterations   MaxIter         ....   125
 SCF integral mode      SCFMode         .... Direct
   Integral package                     .... SHARK and LIBINT hybrid scheme
 Reset frequency        DirectResetFreq ....    20
 Integral Threshold     Thresh          ....  2.500e-11 Eh
 Primitive CutOff       TCut            ....  2.500e-12 Eh

Convergence Tolerance:
 Convergence Check Mode ConvCheckMode   .... Total+1el-Energy
 Convergence forced     ConvForced      .... 0
 Energy Change          TolE            ....  1.000e-08 Eh
 1-El. energy change                    ....  1.000e-05 Eh
 DIIS Error             TolErr          ....  5.000e-07


Diagonalization of the overlap matrix:
Smallest eigenvalue                        ... 5.516e-05
Time for diagonalization                   ...    0.002 sec
Threshold for overlap eigenvalues          ... 1.000e-08
Number of eigenvalues below threshold      ... 0
Time for construction of square roots      ...    0.095 sec
Total time needed                          ...    0.098 sec

Time for model grid setup =    0.117 sec

------------------------------
INITIAL GUESS: MODEL POTENTIAL
------------------------------
Loading Hartree-Fock densities                     ... done
Calculating cut-offs                               ... done
Initializing the effective Hamiltonian             ... done
Setting up the integral package (SHARK)            ... done
Starting the Coulomb interaction                   ... done (   0.3 sec)
Reading the grid                                   ... done
Mapping shells                                     ... done
Starting the XC term evaluation                    ... done (   0.0 sec)
  promolecular density results
     # of electrons  =      8.998086926
     EX              =     -5.933696864
     EC              =     -0.259350880
     EX+EC           =     -6.193047744
Transforming the Hamiltonian                       ... done (   0.0 sec)
Diagonalizing the Hamiltonian                      ... done (   0.0 sec)
Back transforming the eigenvectors                 ... done (   0.0 sec)
Now organizing SCF variables                       ... done
                      ------------------
                      INITIAL GUESS DONE (   0.4 sec)
                      ------------------
-------------------
DFT GRID GENERATION
-------------------

General Integration Accuracy     IntAcc      ... 4.388
Radial Grid Type                 RadialGrid  ... OptM3 with GC (2021)
Angular Grid (max. ang.)         AngularGrid ... 4 (Lebedev-302)
Angular grid pruning method      GridPruning ... 4 (adaptive)
Weight generation scheme         WeightScheme... Becke
Basis function cutoff            BFCut       ... 1.0000e-11
Integration weight cutoff        WCut        ... 1.0000e-14
Angular grids for H and He will be reduced by one unit
Partially contracted basis set               ... off
Rotationally invariant grid construction     ... off

Total number of grid points                  ...    17036
Total number of batches                      ...      268
Average number of points per batch           ...       63
Average number of grid points per atom       ...     4259
Time for grid setup =    0.164 sec

--------------------
COSX GRID GENERATION
--------------------

GRIDX 1
-------
General Integration Accuracy     IntAcc      ... 3.816
Radial Grid Type                 RadialGrid  ... OptM3 with GC (2021)
Angular Grid (max. ang.)         AngularGrid ... 1 (Lebedev-50)
Angular grid pruning method      GridPruning ... 4 (adaptive)
Weight generation scheme         WeightScheme... Becke
Basis function cutoff            BFCut       ... 1.0000e-11
Integration weight cutoff        WCut        ... 1.0000e-14
Angular grids for H and He will be reduced by one unit
Partially contracted basis set               ... on
Rotationally invariant grid construction     ... off

Total number of grid points                  ...     2153
Total number of batches                      ...       36
Average number of points per batch           ...       59
Average number of grid points per atom       ...      538
UseSFitting                                  ... on

GRIDX 2
-------
General Integration Accuracy     IntAcc      ... 4.020
Radial Grid Type                 RadialGrid  ... OptM3 with GC (2021)
Angular Grid (max. ang.)         AngularGrid ... 2 (Lebedev-110)
Angular grid pruning method      GridPruning ... 4 (adaptive)
Weight generation scheme         WeightScheme... Becke
Basis function cutoff            BFCut       ... 1.0000e-11
Integration weight cutoff        WCut        ... 1.0000e-14
Angular grids for H and He will be reduced by one unit
Partially contracted basis set               ... on
Rotationally invariant grid construction     ... off

Total number of grid points                  ...     5062
Total number of batches                      ...       81
Average number of points per batch           ...       62
Average number of grid points per atom       ...     1266
UseSFitting                                  ... on

GRIDX 3
-------
General Integration Accuracy     IntAcc      ... 4.338
Radial Grid Type                 RadialGrid  ... OptM3 with GC (2021)
Angular Grid (max. ang.)         AngularGrid ... 3 (Lebedev-194)
Angular grid pruning method      GridPruning ... 4 (adaptive)
Weight generation scheme         WeightScheme... Becke
Basis function cutoff            BFCut       ... 1.0000e-11
Integration weight cutoff        WCut        ... 1.0000e-14
Angular grids for H and He will be reduced by one unit
Partially contracted basis set               ... on
Rotationally invariant grid construction     ... off

Total number of grid points                  ...    11746
Total number of batches                      ...      185
Average number of points per batch           ...       63
Average number of grid points per atom       ...     2936
UseSFitting                                  ... on

Time for X-Grid setup             =    0.644 sec

--------------
SCF ITERATIONS
--------------
ITER       Energy         Delta-E        Max-DP      RMS-DP      [F,P]     Damp
               ***  Starting incremental Fock matrix formation  ***
  0    -39.7949235400   0.000000000000 0.03158583  0.00084339  0.0780664 0.7000
  1    -39.8086912222  -0.013767682208 0.03171695  0.00074663  0.0498789 0.7000
                               ***Turning on DIIS***
  2    -39.8164111878  -0.007719965620 0.07222520  0.00170302  0.0285999 0.0000
  3    -39.8295945144  -0.013183326558 0.02020351  0.00049555  0.0196083 0.0000
  4    -39.8311912298  -0.001596715460 0.00840143  0.00016062  0.0035392 0.0000
  5    -39.8312588925  -0.000067662697 0.00675939  0.00012485  0.0015831 0.0000
  6    -39.8312790112  -0.000020118641 0.00644463  0.00011693  0.0006355 0.0000
               *** Restarting incremental Fock matrix formation ***
                                   *** Resetting DIIS ***
  7    -39.8312913806  -0.000012369412 0.00100151  0.00001745  0.0000816 0.0000
  8    -39.8312915083  -0.000000127701 0.00045232  0.00000820  0.0000390 0.0000
  9    -39.8312915419  -0.000000033600 0.00001579  0.00000078  0.0000148 0.0000
 10    -39.8312915439  -0.000000002030 0.00000917  0.00000023  0.0000054 0.0000
                 **** Energy Check signals convergence ****

               *****************************************************
               *                     SUCCESS                       *
               *           SCF CONVERGED AFTER  11 CYCLES          *
               *****************************************************

Old exchange energy                            =     -2.173786267 Eh
New exchange energy                            =     -2.173792288 Eh
Exchange energy change after final integration =     -0.000006022 Eh
Total energy after final integration           =    -39.831297566 Eh
Final COS-X integration done in                =     0.137 sec

----------------
TOTAL SCF ENERGY
----------------

Total Energy       :          -39.83129757 Eh           -1083.86471 eV

Components:
Nuclear Repulsion  :            9.70877748 Eh             264.18927 eV
Electronic Energy  :          -49.54007505 Eh           -1348.05398 eV
One Electron Energy:          -71.70713324 Eh           -1951.25030 eV
Two Electron Energy:           22.16705819 Eh             603.19632 eV
Max COSX asymmetry :            0.00000016 Eh               0.00000 eV

Virial components:
Potential Energy   :          -79.47966821 Eh           -2162.75172 eV
Kinetic Energy     :           39.64837064 Eh            1078.88701 eV
Virial Ratio       :            2.00461373


DFT components:
N(Alpha)           :        5.000000059763 electrons
N(Beta)            :        4.000000691572 electrons
N(Total)           :        9.000000751335 electrons
E(XC)              :       -4.314950191161 Eh       
DFET-embed. en.    :        0.000000000000 Eh       

---------------
SCF CONVERGENCE
---------------

  Last Energy change         ...   -1.7813e-10  Tolerance :   1.0000e-08
  Last MAX-Density change    ...    0.0000e+00  Tolerance :   1.0000e-07
  Last RMS-Density change    ...    0.0000e+00  Tolerance :   5.0000e-09
  Last DIIS Error            ...    1.2642e-06  Tolerance :   5.0000e-07

             **** THE GBW FILE WAS UPDATED (/beegfs/scratch/ispackman/PFAS_EPR_calcs/benchmark/JChemEd_CF3_radical/CH3_radical_111.5_degrees_IN-PROGRESS/CH3_radical_111.5_degrees.gbw) ****
             **** DENSITY /beegfs/scratch/ispackman/PFAS_EPR_calcs/benchmark/JChemEd_CF3_radical/CH3_radical_111.5_degrees_IN-PROGRESS/CH3_radical_111.5_degrees.scfp WAS UPDATED ****
             **** ENERGY FILE WAS UPDATED (/beegfs/scratch/ispackman/PFAS_EPR_calcs/benchmark/JChemEd_CF3_radical/CH3_radical_111.5_degrees_IN-PROGRESS/CH3_radical_111.5_degrees.en.tmp) ****
----------------------
UHF SPIN CONTAMINATION
----------------------

Warning: in a DFT calculation there is little theoretical justification to 
         calculate <S**2> as in Hartree-Fock theory. We will do it anyways
         but you should keep in mind that the values have only limited relevance

Expectation value of <S**2>     :     0.753069
Ideal value S*(S+1) for S=0.5   :     0.750000
Deviation                       :     0.003069

             **** THE GBW FILE WAS UPDATED (/beegfs/scratch/ispackman/PFAS_EPR_calcs/benchmark/JChemEd_CF3_radical/CH3_radical_111.5_degrees_IN-PROGRESS/CH3_radical_111.5_degrees.gbw) ****
             **** DENSITY /beegfs/scratch/ispackman/PFAS_EPR_calcs/benchmark/JChemEd_CF3_radical/CH3_radical_111.5_degrees_IN-PROGRESS/CH3_radical_111.5_degrees.scfp WAS UPDATED ****
----------------
ORBITAL ENERGIES
----------------
                 SPIN UP ORBITALS
  NO   OCC          E(Eh)            E(eV) 
   0   1.0000     -10.289464      -279.9905 
   1   1.0000      -0.808839       -22.0096 
   2   1.0000      -0.511009       -13.9053 
   3   1.0000      -0.510982       -13.9045 
   4   1.0000      -0.352888        -9.6026 
   5   0.0000       0.076241         2.0746 
   6   0.0000       0.161480         4.3941 
   7   0.0000       0.161490         4.3944 
   8   0.0000       0.197743         5.3809 
   9   0.0000       0.197752         5.3811 
  10   0.0000       0.199249         5.4218 
  11   0.0000       0.222879         6.0648 
  12   0.0000       0.254440         6.9237 
  13   0.0000       0.254447         6.9239 
  14   0.0000       0.311107         8.4657 
  15   0.0000       0.361052         9.8247 
  16   0.0000       0.361059         9.8249 
  17   0.0000       0.368957        10.0398 
  18   0.0000       0.372988        10.1495 
  19   0.0000       0.386489        10.5169 
  20   0.0000       0.386491        10.5169 
  21   0.0000       0.421886        11.4801 
  22   0.0000       0.421894        11.4803 
  23   0.0000       0.518842        14.1184 
  24   0.0000       0.548455        14.9242 
  25   0.0000       0.548457        14.9243 
  26   0.0000       0.552329        15.0296 
  27   0.0000       0.780841        21.2478 
  28   0.0000       0.797693        21.7063 
  29   0.0000       0.797694        21.7064 
  30   0.0000       0.880662        23.9640 
  31   0.0000       0.880673        23.9643 
  32   0.0000       1.017712        27.6933 
  33   0.0000       1.121884        30.5280 
  34   0.0000       1.121946        30.5297 
  35   0.0000       1.610640        43.8277 
  36   0.0000       1.699621        46.2490 
  37   0.0000       1.746343        47.5204 
  38   0.0000       1.783860        48.5413 
  39   0.0000       1.783893        48.5422 
  40   0.0000       1.922630        52.3174 
  41   0.0000       1.922684        52.3189 
  42   0.0000       2.126085        57.8537 
  43   0.0000       2.261709        61.5442 
  44   0.0000       2.359436        64.2035 
  45   0.0000       2.359531        64.2061 
  46   0.0000       2.507209        68.2246 
  47   0.0000       2.507296        68.2270 
  48   0.0000       2.719100        73.9905 
  49   0.0000       2.719140        73.9916 
  50   0.0000       2.843783        77.3833 
  51   0.0000       3.041366        82.7598 
  52   0.0000       3.162888        86.0666 
  53   0.0000       3.162946        86.0681 
  54   0.0000       3.291113        89.5557 
  55   0.0000       3.291115        89.5558 
  56   0.0000       3.515604        95.6644 
  57   0.0000       3.540477        96.3413 
  58   0.0000       3.598983        97.9333 
  59   0.0000       3.599009        97.9340 
  60   0.0000       4.382037       119.2413 
  61   0.0000       4.382083       119.2425 
  62   0.0000       4.618197       125.6675 
  63   0.0000      22.197452       604.0234 

                 SPIN DOWN ORBITALS
  NO   OCC          E(Eh)            E(eV) 
   0   1.0000     -10.278771      -279.6996 
   1   1.0000      -0.768031       -20.8992 
   2   1.0000      -0.497151       -13.5282 
   3   1.0000      -0.497076       -13.5261 
   4   0.0000      -0.007667        -0.2086 
   5   0.0000       0.085777         2.3341 
   6   0.0000       0.166040         4.5182 
   7   0.0000       0.166054         4.5186 
   8   0.0000       0.200582         5.4581 
   9   0.0000       0.200591         5.4584 
  10   0.0000       0.233103         6.3431 
  11   0.0000       0.243064         6.6141 
  12   0.0000       0.259696         7.0667 
  13   0.0000       0.259703         7.0669 
  14   0.0000       0.322359         8.7718 
  15   0.0000       0.371553        10.1105 
  16   0.0000       0.371572        10.1110 
  17   0.0000       0.373041        10.1510 
  18   0.0000       0.376131        10.2350 
  19   0.0000       0.393526        10.7084 
  20   0.0000       0.393528        10.7084 
  21   0.0000       0.431186        11.7332 
  22   0.0000       0.431188        11.7332 
  23   0.0000       0.545386        14.8407 
  24   0.0000       0.550348        14.9757 
  25   0.0000       0.550354        14.9759 
  26   0.0000       0.567961        15.4550 
  27   0.0000       0.790588        21.5130 
  28   0.0000       0.807392        21.9703 
  29   0.0000       0.807398        21.9704 
  30   0.0000       0.906968        24.6799 
  31   0.0000       0.906972        24.6800 
  32   0.0000       1.040121        28.3031 
  33   0.0000       1.129081        30.7239 
  34   0.0000       1.129159        30.7260 
  35   0.0000       1.673656        45.5425 
  36   0.0000       1.700177        46.2642 
  37   0.0000       1.764008        48.0011 
  38   0.0000       1.793174        48.7947 
  39   0.0000       1.793234        48.7964 
  40   0.0000       1.938567        52.7511 
  41   0.0000       1.938582        52.7515 
  42   0.0000       2.139035        58.2061 
  43   0.0000       2.267629        61.7053 
  44   0.0000       2.370737        64.5110 
  45   0.0000       2.370910        64.5158 
  46   0.0000       2.514024        68.4101 
  47   0.0000       2.514151        68.4135 
  48   0.0000       2.736292        74.4583 
  49   0.0000       2.736343        74.4597 
  50   0.0000       2.880256        78.3758 
  51   0.0000       3.082727        83.8853 
  52   0.0000       3.215330        87.4936 
  53   0.0000       3.215377        87.4949 
  54   0.0000       3.326783        90.5264 
  55   0.0000       3.326891        90.5293 
  56   0.0000       3.532272        96.1180 
  57   0.0000       3.579062        97.3912 
  58   0.0000       3.639175        99.0270 
  59   0.0000       3.639240        99.0288 
  60   0.0000       4.403474       119.8246 
  61   0.0000       4.403575       119.8274 
  62   0.0000       4.643548       126.3574 
  63   0.0000      22.217801       604.5771 

                    ********************************
                    * MULLIKEN POPULATION ANALYSIS *
                    ********************************

--------------------------------------------
MULLIKEN ATOMIC CHARGES AND SPIN POPULATIONS
--------------------------------------------
   0 C :   -0.712535    0.887856
   1 H :    0.237289    0.037344
   2 H :    0.237623    0.037400
   3 H :    0.237624    0.037400
Sum of atomic charges         :   -0.0000000
Sum of atomic spin populations:    1.0000000

-----------------------------------------------------
MULLIKEN REDUCED ORBITAL CHARGES AND SPIN POPULATIONS
-----------------------------------------------------
CHARGE
  0 C s       :     3.395762  s :     3.395762
      pz      :     0.930365  p :     3.277817
      px      :     1.173578
      py      :     1.173874
      dz2     :     0.002370  d :     0.037638
      dxz     :     0.008471
      dyz     :     0.008481
      dx2y2   :     0.009147
      dxy     :     0.009169
      f0      :     0.000398  f :     0.001318
      f+1     :     0.000182
      f-1     :     0.000181
      f+2     :    -0.000099
      f-2     :    -0.000099
      f+3     :     0.000755
      f-3     :     0.000000
  1 H s       :     0.715314  s :     0.715314
      pz      :     0.022950  p :     0.047397
      px      :     0.021700
      py      :     0.002747
  2 H s       :     0.715063  s :     0.715063
      pz      :     0.022879  p :     0.047314
      px      :     0.007472
      py      :     0.016963
  3 H s       :     0.715064  s :     0.715064
      pz      :     0.022879  p :     0.047313
      px      :     0.007472
      py      :     0.016962

SPIN
  0 C s       :    -0.010606  s :    -0.010606
      pz      :     0.887253  p :     0.905655
      px      :     0.009224
      py      :     0.009177
      dz2     :    -0.002395  d :    -0.006116
      dxz     :    -0.002057
      dyz     :    -0.002056
      dx2y2   :     0.000202
      dxy     :     0.000191
      f0      :    -0.000282  f :    -0.001077
      f+1     :    -0.000312
      f-1     :    -0.000313
      f+2     :    -0.000015
      f-2     :    -0.000014
      f+3     :    -0.000141
      f-3     :    -0.000000
  1 H s       :     0.010742  s :     0.010742
      pz      :     0.021274  p :     0.026602
      px      :     0.002145
      py      :     0.003184
  2 H s       :     0.010869  s :     0.010869
      pz      :     0.021204  p :     0.026531
      px      :     0.002930
      py      :     0.002397
  3 H s       :     0.010869  s :     0.010869
      pz      :     0.021204  p :     0.026531
      px      :     0.002930
      py      :     0.002397


                     *******************************
                     * LOEWDIN POPULATION ANALYSIS *
                     *******************************

-------------------------------------------
LOEWDIN ATOMIC CHARGES AND SPIN POPULATIONS
-------------------------------------------
   0 C :    0.059352    0.833554
   1 H :   -0.019796    0.055498
   2 H :   -0.019778    0.055474
   3 H :   -0.019778    0.055474

----------------------------------------------------
LOEWDIN REDUCED ORBITAL CHARGES AND SPIN POPULATIONS
----------------------------------------------------
CHARGE
  0 C s       :     2.913109  s :     2.913109
      pz      :     0.779923  p :     2.902568
      px      :     1.061347
      py      :     1.061298
      dz2     :     0.009177  d :     0.115191
      dxz     :     0.014074
      dyz     :     0.014072
      dx2y2   :     0.038926
      dxy     :     0.038942
      f0      :     0.000962  f :     0.009779
      f+1     :     0.000644
      f-1     :     0.000644
      f+2     :     0.002133
      f-2     :     0.002133
      f+3     :     0.003264
      f-3     :     0.000000
  1 H s       :     0.759832  s :     0.759832
      pz      :     0.067855  p :     0.259964
      px      :     0.123574
      py      :     0.068535
  2 H s       :     0.759834  s :     0.759834
      pz      :     0.067843  p :     0.259944
      px      :     0.082280
      py      :     0.109821
  3 H s       :     0.759834  s :     0.759834
      pz      :     0.067843  p :     0.259944
      px      :     0.082280
      py      :     0.109821

SPIN
  0 C s       :     0.062704  s :     0.062704
      pz      :     0.746654  p :     0.779393
      px      :     0.016350
      py      :     0.016389
      dz2     :    -0.000441  d :    -0.007708
      dxz     :    -0.001721
      dyz     :    -0.001717
      dx2y2   :    -0.001907
      dxy     :    -0.001923
      f0      :    -0.000211  f :    -0.000835
      f+1     :    -0.000267
      f-1     :    -0.000267
      f+2     :    -0.000106
      f-2     :    -0.000106
      f+3     :     0.000122
      f-3     :    -0.000000
  1 H s       :    -0.007660  s :    -0.007660
      pz      :     0.060550  p :     0.063158
      px      :     0.003212
      py      :    -0.000604
  2 H s       :    -0.007664  s :    -0.007664
      pz      :     0.060530  p :     0.063138
      px      :     0.000355
      py      :     0.002252
  3 H s       :    -0.007664  s :    -0.007664
      pz      :     0.060530  p :     0.063138
      px      :     0.000355
      py      :     0.002252


                      *****************************
                      * MAYER POPULATION ANALYSIS *
                      *****************************

  NA   - Mulliken gross atomic population
  ZA   - Total nuclear charge
  QA   - Mulliken gross atomic charge
  VA   - Mayer's total valence
  BVA  - Mayer's bonded valence
  FA   - Mayer's free valence

  ATOM       NA         ZA         QA         VA         BVA        FA
  0 C      6.7125     6.0000    -0.7125     3.7679     2.9448     0.8231
  1 H      0.7627     1.0000     0.2373     1.0072     1.0058     0.0014
  2 H      0.7624     1.0000     0.2376     1.0068     1.0054     0.0014
  3 H      0.7624     1.0000     0.2376     1.0068     1.0054     0.0014

  Mayer bond orders larger than 0.100000
B(  0-C ,  1-H ) :   0.9819 B(  0-C ,  2-H ) :   0.9815 B(  0-C ,  3-H ) :   0.9815 


-------
TIMINGS
-------

Total SCF time: 0 days 0 hours 0 min 18 sec 

Total time                  ....      18.642 sec
Sum of individual times     ....      16.375 sec  ( 87.8%)

Fock matrix formation       ....      13.132 sec  ( 70.4%)
  Split-RI-J                ....       1.344 sec  ( 10.2% of F)
  Chain of spheres X        ....       1.590 sec  ( 12.1% of F)
  XC integration            ....       2.572 sec  ( 19.6% of F)
    Basis function eval.    ....       0.051 sec  (  2.0% of XC)
    Density eval.           ....       0.066 sec  (  2.6% of XC)
    XC-Functional eval.     ....       0.069 sec  (  2.7% of XC)
    XC-Potential eval.      ....       0.070 sec  (  2.7% of XC)
Diagonalization             ....       0.230 sec  (  1.2%)
Density matrix formation    ....       0.014 sec  (  0.1%)
Population analysis         ....       0.357 sec  (  1.9%)
Initial guess               ....       0.318 sec  (  1.7%)
Orbital Transformation      ....       0.000 sec  (  0.0%)
Orbital Orthonormalization  ....       0.000 sec  (  0.0%)
DIIS solution               ....       1.398 sec  (  7.5%)
Grid generation             ....       0.925 sec  (  5.0%)

Maximum memory used throughout the entire SCF-calculation: 58.5 MB


-------------------------------------------------------------------------------
                          DFT DISPERSION CORRECTION                            
                                                                               
                              DFTD3 V3.1  Rev 1                                
                              USING zero damping                               
-------------------------------------------------------------------------------
The omegaB97X-D3 functional is recognized. Fit by Chai et al.
Active option DFTDOPT                   ...         3   

molecular C6(AA) [au] = 106.961275 


            DFT-D V3
 parameters
 s6 scaling factor         :     1.0000 
 rs6 scaling factor        :     1.2810 
 s8 scaling factor         :     1.0000 
 rs8 scaling factor        :     1.0940 
 Damping factor alpha6     :    14.0000 
 Damping factor alpha8     :    16.0000 
 ad hoc parameters k1-k3   :    16.0000     1.3333    -4.0000 

 Edisp/kcal,au: -0.008008477930  -0.000012762321 
 E6   /kcal   :  -0.001248379 
 E8   /kcal   :  -0.006760099 
 % E8         :  84.411778809 

-------------------------   ----------------
Dispersion correction           -0.000012762
-------------------------   ----------------


-------------------------   --------------------
FINAL SINGLE POINT ENERGY       -39.831310328050
-------------------------   --------------------



           ************************************************************
           *        Program running with 18 parallel MPI-processes    *
           *              working on a common directory               *
           ************************************************************
------------------------------------------------------------------------------
                         ORCA SCF GRADIENT CALCULATION
------------------------------------------------------------------------------

 ... reading COSX grid (gridx3)
Gradient of the Kohn-Sham DFT energy:
Kohn-Sham wavefunction type      ... UKS
Hartree-Fock exchange scaling    ...    0.196
Number of operators              ...    2
Number of atoms                  ...    4
Basis set dimensions             ...   64
Integral neglect threshold       ... 2.5e-11
Integral primitive cutoff        ... 2.5e-12
SHARK Integral package           ... ON

Nuc. rep. gradient       (SHARK) ... done (  0.0 sec)
HCore & Overlap gradient (SHARK) ... done (  0.0 sec)
RI-J gradient            (SHARK) ... done (  0.2 sec)
COSX-gradient                    ... done (  0.1 sec)
Exchange-correlation gradient    ... done
Dispersion correction            ... done

------------------
CARTESIAN GRADIENT
------------------

WARNING: THERE ARE 3 CONSTRAINED CARTESIAN COORDINATES
   1   C   :    0.000031138   -0.000000067    0.030284114
   2   H   :   -0.008573011    0.000000011   -0.010097132
   3   H   :    0.004284280   -0.007436352   -0.010102771
   4   H   :    0.004284285    0.007436359   -0.010102779

Difference to translation invariance:
           :    0.0000266925   -0.0000000495   -0.0000185684

Difference to rotation invariance:
           :    0.0000000229   -0.0000082849    0.0000000222

Norm of the cartesian gradient     ...    0.0380002389
RMS gradient                       ...    0.0109697241
MAX gradient                       ...    0.0302841138

-------
TIMINGS
-------

Total SCF gradient time            ...        0.884 sec

One electron gradient       ....       0.007 sec  (  0.7%)
RI-J Coulomb gradient       ....       0.178 sec  ( 20.2%)
COSX gradient               ....       0.130 sec  ( 14.7%)
XC gradient                 ....       0.093 sec  ( 10.5%)

Maximum memory used throughout the entire SCFGRAD-calculation: 33.6 MB
------------------------------------------------------------------------------
                         ORCA GEOMETRY RELAXATION STEP
------------------------------------------------------------------------------

Reading the OPT-File                    .... done
Getting information on internals        .... done
Copying old internal coords+grads       .... done
Making the new internal coordinates     .... (new redundants).... done
Validating the new internal coordinates .... (new redundants).... done
Calculating the B-matrix                .... done
Calculating the G,G- and P matrices     .... done
Transforming gradient to internals      .... done
Projecting the internal gradient        .... done
Number of atoms                         ....   4
Number of internal coordinates          ....   7
Current Energy                          ....   -39.831310328 Eh
Current gradient norm                   ....     0.038000239 Eh/bohr
Maximum allowed component of the step   ....  0.300
Current trust radius                    ....  0.300
Evaluating the initial hessian          ....  (Almloef) done
Projecting the Hessian                  .... done
Forming the augmented Hessian           .... done
Diagonalizing the augmented Hessian     .... done
Last element of RFO vector              ....  0.999712445
Lowest eigenvalues of augmented Hessian:
 -0.000215063  0.373574723  0.373574723  0.373789786 1000.000000000
Length of the computed step             ....  0.023986619
The final length of the internal step   ....  0.023986619
Converting the step to cartesian space:
 Initial RMS(Int)=    0.0090660899
Transforming coordinates:
 Iter   0:  RMS(Cart)=    0.0066892520 RMS(Int)=    0.0090660899
 Iter   1:  RMS(Cart)=    0.0000000000 RMS(Int)=    0.0000000000
Imposing constraints:
 Iter   0:  RMS(Cart)=    0.0000000008 RMS(Int)=    0.0000000029
CONVERGED
done
Storing new coordinates                 .... done

                                .--------------------.
          ----------------------|Geometry convergence|-------------------------
          Item                value                   Tolerance       Converged
          ---------------------------------------------------------------------
          RMS gradient        0.0033888118            0.0001000000      NO
          MAX gradient        0.0051784156            0.0003000000      NO
          RMS step            0.0090660899            0.0020000000      NO
          MAX step            0.0138538178            0.0040000000      NO
          ........................................................
          Max(Bonds)      0.0073      Max(Angles)    0.00
          Max(Dihed)        0.00      Max(Improp)    0.00
          ---------------------------------------------------------------------

The optimization has not yet converged - more geometry cycles are needed


    ---------------------------------------------------------------------------
                         Redundant Internal Coordinates
                            (Angstroem and degrees)

        Definition                    Value    dE/dq     Step     New-Value
    ----------------------------------------------------------------------------
     1. B(H   1,C   0)                1.0800 -0.005178  0.0073    1.0873   
     2. B(H   2,C   0)                1.0800 -0.005176  0.0073    1.0873   
     3. B(H   3,C   0)                1.0800 -0.005176  0.0073    1.0873   
     4. A(H   2,C   0,H   3)          111.50 -0.014406   -0.00    111.50 C 
     5. A(H   1,C   0,H   2)          111.50 -0.005104   -0.00    111.50 C 
     6. A(H   1,C   0,H   3)          111.50 -0.005104   -0.00    111.50 C 
     7. I(H   1,H   3,H   2,C   0)     49.37  0.020195   -0.00     49.37   
    ----------------------------------------------------------------------------

         *************************************************************
         *                GEOMETRY OPTIMIZATION CYCLE   2            *
         *************************************************************
---------------------------------
CARTESIAN COORDINATES (ANGSTROEM)
---------------------------------
  C     -0.000001    0.000000    0.001640
  H      1.037817    0.000000   -0.322740
  H     -0.518908    0.898773   -0.322740
  H     -0.518908   -0.898773   -0.322740

----------------------------
CARTESIAN COORDINATES (A.U.)
----------------------------
  NO LB      ZA    FRAG     MASS         X           Y           Z
   0 C     6.0000    0    12.011   -0.000002    0.000000    0.003099
   1 H     1.0000    0     1.008    1.961190    0.000000   -0.609891
   2 H     1.0000    0     1.008   -0.980594    1.698436   -0.609890
   3 H     1.0000    0     1.008   -0.980594   -1.698436   -0.609890

--------------------------------
INTERNAL COORDINATES (ANGSTROEM)
--------------------------------
 C      0   0   0     0.000000000000     0.00000000     0.00000000
 H      1   0   0     1.087331124611     0.00000000     0.00000000
 H      1   2   0     1.087327024509   111.50000004     0.00000000
 H      1   2   3     1.087327069399   111.50000004   125.34756995

---------------------------
INTERNAL COORDINATES (A.U.)
---------------------------
 C      0   0   0     0.000000000000     0.00000000     0.00000000
 H      1   0   0     2.054758042404     0.00000000     0.00000000
 H      1   2   0     2.054750294334   111.50000004     0.00000000
 H      1   2   3     2.054750379164   111.50000004   125.34756995



           ************************************************************
           *        Program running with 18 parallel MPI-processes    *
           *              working on a common directory               *
           ************************************************************
------------------------------------------------------------------------------
                   ___                                                        
                  /   \      - P O W E R E D   B Y -                         
                 /     \                                                     
                 |  |  |   _    _      __       _____    __    __             
                 |  |  |  | |  | |    /  \     |  _  \  |  |  /  |          
                  \  \/   | |  | |   /    \    | | | |  |  | /  /          
                 / \  \   | |__| |  /  /\  \   | |_| |  |  |/  /          
                |  |  |   |  __  | /  /__\  \  |    /   |      \           
                |  |  |   | |  | | |   __   |  |    \   |  |\   \          
                \     /   | |  | | |  |  |  |  | |\  \  |  | \   \       
                 \___/    |_|  |_| |__|  |__|  |_| \__\ |__|  \__/        
                                                                              
                      - O R C A' S   B I G   F R I E N D -                    
                                      &                                       
                       - I N T E G R A L  F E E D E R -                       
                                                                              
 v1 FN, 2020, v2 2021                                                         
------------------------------------------------------------------------------


Reading SHARK input file /beegfs/scratch/ispackman/PFAS_EPR_calcs/benchmark/JChemEd_CF3_radical/CH3_radical_111.5_degrees_IN-PROGRESS/CH3_radical_111.5_degrees.SHARKINP.tmp ... ok
----------------------
SHARK INTEGRAL PACKAGE
----------------------

Number of atoms                             ...      4
Number of basis functions                   ...     64
Number of shells                            ...     28
Maximum angular momentum                    ...      3
Integral batch strategy                     ... SHARK/LIBINT Hybrid
RI-J (if used) integral strategy            ... SPLIT-RIJ (Revised 2003 algorithm where possible)
Printlevel                                  ...      1
Contraction scheme used                     ... SEGMENTED contraction
Coulomb Range Separation                    ... NOT USED
Exchange Range Separation                   ... Long Range
   Mu parameter                             ...  0.250000
   Scaling (regular/separated)              ...  0.195728  0.804272
Finite Nucleus Model                        ... NOT USED
Auxiliary Coulomb fitting basis             ... AVAILABLE
   # of basis functions in Aux-J            ...     82
   # of shells in Aux-J                     ...     30
   Maximum angular momentum in Aux-J        ...      4
Auxiliary J/K fitting basis                 ... NOT available
Auxiliary Correlation fitting basis         ... NOT available
Auxiliary 'external' fitting basis          ... NOT available
Integral threshold                          ...     2.500000e-11
Primitive cut-off                           ...     2.500000e-12
Primitive pair pre-selection threshold      ...     2.500000e-12

Calculating pre-screening integrals         ... done (  0.0 sec) Dimension = 28
Organizing shell pair data                  ... done (  0.0 sec)
Shell pair information
Total number of shell pairs                 ...       406
Shell pairs after pre-screening             ...       406
Total number of primitive shell pairs       ...       977
Primitive shell pairs kept                  ...       944
          la=0 lb=0:    120 shell pairs
          la=1 lb=0:    135 shell pairs
          la=1 lb=1:     45 shell pairs
          la=2 lb=0:     45 shell pairs
          la=2 lb=1:     27 shell pairs
          la=2 lb=2:      6 shell pairs
          la=3 lb=0:     15 shell pairs
          la=3 lb=1:      9 shell pairs
          la=3 lb=2:      3 shell pairs
          la=3 lb=3:      1 shell pairs

Calculating one electron integrals          ... done (  0.0 sec)
Calculating RI/J V-Matrix + Cholesky decomp.... done (  0.1 sec)
Calculating Nuclear repulsion               ... done (  0.0 sec) ENN=      9.643341992768 Eh

SHARK setup successfully completed in   0.6 seconds

Maximum memory used throughout the entire GTOINT-calculation: 14.0 MB


           ************************************************************
           *        Program running with 18 parallel MPI-processes    *
           *              working on a common directory               *
           ************************************************************

Diagonalization of the overlap matrix:
Smallest eigenvalue                        ... 5.777e-05
Time for diagonalization                   ...    0.002 sec
Threshold for overlap eigenvalues          ... 1.000e-08
Number of eigenvalues below threshold      ... 0
Time for construction of square roots      ...    0.084 sec
Total time needed                          ...    0.087 sec

-------------------
DFT GRID GENERATION
-------------------

General Integration Accuracy     IntAcc      ... 4.388
Radial Grid Type                 RadialGrid  ... OptM3 with GC (2021)
Angular Grid (max. ang.)         AngularGrid ... 4 (Lebedev-302)
Angular grid pruning method      GridPruning ... 4 (adaptive)
Weight generation scheme         WeightScheme... Becke
Basis function cutoff            BFCut       ... 1.0000e-11
Integration weight cutoff        WCut        ... 1.0000e-14
Angular grids for H and He will be reduced by one unit
Partially contracted basis set               ... off
Rotationally invariant grid construction     ... off

Total number of grid points                  ...    17037
Total number of batches                      ...      268
Average number of points per batch           ...       63
Average number of grid points per atom       ...     4259
Time for grid setup =    0.188 sec

--------------------
COSX GRID GENERATION
--------------------

GRIDX 1
-------
General Integration Accuracy     IntAcc      ... 3.816
Radial Grid Type                 RadialGrid  ... OptM3 with GC (2021)
Angular Grid (max. ang.)         AngularGrid ... 1 (Lebedev-50)
Angular grid pruning method      GridPruning ... 4 (adaptive)
Weight generation scheme         WeightScheme... Becke
Basis function cutoff            BFCut       ... 1.0000e-11
Integration weight cutoff        WCut        ... 1.0000e-14
Angular grids for H and He will be reduced by one unit
Partially contracted basis set               ... on
Rotationally invariant grid construction     ... off

Total number of grid points                  ...     2153
Total number of batches                      ...       36
Average number of points per batch           ...       59
Average number of grid points per atom       ...      538
UseSFitting                                  ... on

GRIDX 2
-------
General Integration Accuracy     IntAcc      ... 4.020
Radial Grid Type                 RadialGrid  ... OptM3 with GC (2021)
Angular Grid (max. ang.)         AngularGrid ... 2 (Lebedev-110)
Angular grid pruning method      GridPruning ... 4 (adaptive)
Weight generation scheme         WeightScheme... Becke
Basis function cutoff            BFCut       ... 1.0000e-11
Integration weight cutoff        WCut        ... 1.0000e-14
Angular grids for H and He will be reduced by one unit
Partially contracted basis set               ... on
Rotationally invariant grid construction     ... off

Total number of grid points                  ...     5062
Total number of batches                      ...       81
Average number of points per batch           ...       62
Average number of grid points per atom       ...     1266
UseSFitting                                  ... on

GRIDX 3
-------
General Integration Accuracy     IntAcc      ... 4.338
Radial Grid Type                 RadialGrid  ... OptM3 with GC (2021)
Angular Grid (max. ang.)         AngularGrid ... 3 (Lebedev-194)
Angular grid pruning method      GridPruning ... 4 (adaptive)
Weight generation scheme         WeightScheme... Becke
Basis function cutoff            BFCut       ... 1.0000e-11
Integration weight cutoff        WCut        ... 1.0000e-14
Angular grids for H and He will be reduced by one unit
Partially contracted basis set               ... on
Rotationally invariant grid construction     ... off

Total number of grid points                  ...    11749
Total number of batches                      ...      186
Average number of points per batch           ...       63
Average number of grid points per atom       ...     2937
UseSFitting                                  ... on

Time for X-Grid setup             =    0.678 sec

--------------
SCF ITERATIONS
--------------
ITER       Energy         Delta-E        Max-DP      RMS-DP      [F,P]     Damp
               ***  Starting incremental Fock matrix formation  ***
  0    -39.8313682379   0.000000000000 0.00199793  0.00004165  0.0019056 0.7000
  1    -39.8313780621  -0.000009824226 0.00176658  0.00003570  0.0012995 0.7000
                               ***Turning on DIIS***
  2    -39.8313846548  -0.000006592683 0.00468294  0.00009203  0.0008450 0.0000
               *** Restarting incremental Fock matrix formation ***
                                   *** Resetting DIIS ***
  3    -39.8313993772  -0.000014722428 0.00159917  0.00003088  0.0003647 0.0000
  4    -39.8313998662  -0.000000488972 0.00013177  0.00000497  0.0001806 0.0000
  5    -39.8314000370  -0.000000170799 0.00013185  0.00000322  0.0000414 0.0000
  6    -39.8314000525  -0.000000015457 0.00002149  0.00000085  0.0000106 0.0000
                 **** Energy Check signals convergence ****

               *****************************************************
               *                     SUCCESS                       *
               *           SCF CONVERGED AFTER   7 CYCLES          *
               *****************************************************

Old exchange energy                            =     -2.171797995 Eh
New exchange energy                            =     -2.171804154 Eh
Exchange energy change after final integration =     -0.000006160 Eh
Total energy after final integration           =    -39.831406214 Eh
Final COS-X integration done in                =     0.127 sec
Total Energy       :          -39.83140621 Eh           -1083.86767 eV
  Last Energy change         ...   -1.6494e-09  Tolerance :   1.0000e-08
  Last MAX-Density change    ...    0.0000e+00  Tolerance :   1.0000e-07
             **** THE GBW FILE WAS UPDATED (/beegfs/scratch/ispackman/PFAS_EPR_calcs/benchmark/JChemEd_CF3_radical/CH3_radical_111.5_degrees_IN-PROGRESS/CH3_radical_111.5_degrees.gbw) ****
             **** DENSITY /beegfs/scratch/ispackman/PFAS_EPR_calcs/benchmark/JChemEd_CF3_radical/CH3_radical_111.5_degrees_IN-PROGRESS/CH3_radical_111.5_degrees.scfp WAS UPDATED ****
             **** ENERGY FILE WAS UPDATED (/beegfs/scratch/ispackman/PFAS_EPR_calcs/benchmark/JChemEd_CF3_radical/CH3_radical_111.5_degrees_IN-PROGRESS/CH3_radical_111.5_degrees.en.tmp) ****
----------------------
UHF SPIN CONTAMINATION
----------------------

Warning: in a DFT calculation there is little theoretical justification to 
         calculate <S**2> as in Hartree-Fock theory. We will do it anyways
         but you should keep in mind that the values have only limited relevance

Expectation value of <S**2>     :     0.753122
Ideal value S*(S+1) for S=0.5   :     0.750000
Deviation                       :     0.003122

             **** THE GBW FILE WAS UPDATED (/beegfs/scratch/ispackman/PFAS_EPR_calcs/benchmark/JChemEd_CF3_radical/CH3_radical_111.5_degrees_IN-PROGRESS/CH3_radical_111.5_degrees.gbw) ****
             **** DENSITY /beegfs/scratch/ispackman/PFAS_EPR_calcs/benchmark/JChemEd_CF3_radical/CH3_radical_111.5_degrees_IN-PROGRESS/CH3_radical_111.5_degrees.scfp WAS UPDATED ****
Total SCF time: 0 days 0 hours 0 min 12 sec 

Maximum memory used throughout the entire SCF-calculation: 58.5 MB


-------------------------------------------------------------------------------
                          DFT DISPERSION CORRECTION                            
                                                                               
                              DFTD3 V3.1  Rev 1                                
                              USING zero damping                               
-------------------------------------------------------------------------------
-------------------------   ----------------
Dispersion correction           -0.000013472
-------------------------   ----------------


-------------------------   --------------------
FINAL SINGLE POINT ENERGY       -39.831419685462
-------------------------   --------------------



           ************************************************************
           *        Program running with 18 parallel MPI-processes    *
           *              working on a common directory               *
           ************************************************************
------------------------------------------------------------------------------
                         ORCA SCF GRADIENT CALCULATION
------------------------------------------------------------------------------

 ... reading COSX grid (gridx3)
Gradient of the Kohn-Sham DFT energy:
Kohn-Sham wavefunction type      ... UKS
Hartree-Fock exchange scaling    ...    0.196
Number of operators              ...    2
Number of atoms                  ...    4
Basis set dimensions             ...   64
Integral neglect threshold       ... 2.5e-11
Integral primitive cutoff        ... 2.5e-12
SHARK Integral package           ... ON

Nuc. rep. gradient       (SHARK) ... done (  0.0 sec)
HCore & Overlap gradient (SHARK) ... done (  0.0 sec)
RI-J gradient            (SHARK) ... done (  0.2 sec)
COSX-gradient                    ... done (  0.1 sec)
Exchange-correlation gradient    ... done
Dispersion correction            ... done

------------------
CARTESIAN GRADIENT
------------------

WARNING: THERE ARE 3 CONSTRAINED CARTESIAN COORDINATES
   1   C   :    0.000028127   -0.000000014    0.033967069
   2   H   :   -0.003658366    0.000000012   -0.011327210
   3   H   :    0.001828225   -0.003181672   -0.011330544
   4   H   :    0.001828188    0.003181669   -0.011330507

Difference to translation invariance:
           :    0.0000261748   -0.0000000062   -0.0000211926

Difference to rotation invariance:
           :   -0.0000000574   -0.0000051266   -0.0000000362

Norm of the cartesian gradient     ...    0.0397384482
RMS gradient                       ...    0.0114715019
MAX gradient                       ...    0.0339670691

-------
TIMINGS
-------

Total SCF gradient time            ...        0.801 sec

One electron gradient       ....       0.012 sec  (  1.5%)
RI-J Coulomb gradient       ....       0.185 sec  ( 23.1%)
COSX gradient               ....       0.134 sec  ( 16.7%)
XC gradient                 ....       0.066 sec  (  8.2%)

Maximum memory used throughout the entire SCFGRAD-calculation: 33.6 MB
------------------------------------------------------------------------------
                         ORCA GEOMETRY RELAXATION STEP
------------------------------------------------------------------------------

Reading the OPT-File                    .... done
Getting information on internals        .... done
Copying old internal coords+grads       .... done
Making the new internal coordinates     .... (new redundants).... done
Validating the new internal coordinates .... (new redundants).... done
Calculating the B-matrix                .... done
Calculating the G,G- and P matrices     .... done
Transforming gradient to internals      .... done
Projecting the internal gradient        .... done
Number of atoms                         ....   4
Number of internal coordinates          ....   7
Current Energy                          ....   -39.831419685 Eh
Current gradient norm                   ....     0.039738448 Eh/bohr
Maximum allowed component of the step   ....  0.300
Current trust radius                    ....  0.300
Updating the Hessian (BFGS)             .... done
Forming the augmented Hessian           .... done
Diagonalizing the augmented Hessian     .... done
Last element of RFO vector              ....  0.999999836
Lowest eigenvalues of augmented Hessian:
 -0.000000119  0.365083362  0.373574723  0.373574746 999.999999933
Length of the computed step             ....  0.000572034
The final length of the internal step   ....  0.000572034
Converting the step to cartesian space:
 Initial RMS(Int)=    0.0002162087
Transforming coordinates:
 Iter   0:  RMS(Cart)=    0.0001595256 RMS(Int)=    0.0002162087
 Iter   1:  RMS(Cart)=    0.0000000000 RMS(Int)=    0.0000000000
Imposing constraints:
 Iter   0:  RMS(Cart)=    0.0000000005 RMS(Int)=    0.0000000021
CONVERGED
done
Storing new coordinates                 .... done

                                .--------------------.
          ----------------------|Geometry convergence|-------------------------
          Item                value                   Tolerance       Converged
          ---------------------------------------------------------------------
          Energy change      -0.0001093574            0.0000050000      NO
          RMS gradient        0.0000789342            0.0001000000      YES
          MAX gradient        0.0001208886            0.0003000000      YES
          RMS step            0.0002162087            0.0020000000      YES
          MAX step            0.0003311265            0.0040000000      YES
          ........................................................
          Max(Bonds)      0.0002      Max(Angles)    0.00
          Max(Dihed)        0.00      Max(Improp)    0.00
          ---------------------------------------------------------------------

       Everything but the energy has converged. However, the energy
       appears to be close enough to convergence to make sure that the
       final evaluation at the new geometry represents the equilibrium energy.
       Convergence will therefore be signaled now


                    ***********************HURRAY********************
                    ***        THE OPTIMIZATION HAS CONVERGED     ***
                    *************************************************


    ---------------------------------------------------------------------------
                         Redundant Internal Coordinates

                          --- Optimized Parameters ---  
                            (Angstroem and degrees)

        Definition                    OldVal   dE/dq     Step     FinalVal
    ----------------------------------------------------------------------------
     1. B(H   1,C   0)                1.0873 -0.000121  0.0002    1.0875   
     2. B(H   2,C   0)                1.0873 -0.000120  0.0002    1.0875   
     3. B(H   3,C   0)                1.0873 -0.000120  0.0002    1.0875   
     4. A(H   2,C   0,H   3)          111.50 -0.014154    0.00    111.50 C 
     5. A(H   1,C   0,H   2)          111.50 -0.005015    0.00    111.50 C 
     6. A(H   1,C   0,H   3)          111.50 -0.005015    0.00    111.50 C 
     7. I(H   1,H   3,H   2,C   0)     49.37  0.019843   -0.00     49.37   
    ----------------------------------------------------------------------------
                 *******************************************************
                 *** FINAL ENERGY EVALUATION AT THE STATIONARY POINT ***
                 ***               (AFTER    2 CYCLES)               ***
                 *******************************************************
---------------------------------
CARTESIAN COORDINATES (ANGSTROEM)
---------------------------------
  C     -0.000001    0.000000    0.001679
  H      1.037984    0.000000   -0.322753
  H     -0.518991    0.898918   -0.322753
  H     -0.518991   -0.898918   -0.322753

----------------------------
CARTESIAN COORDINATES (A.U.)
----------------------------
  NO LB      ZA    FRAG     MASS         X           Y           Z
   0 C     6.0000    0    12.011   -0.000002    0.000000    0.003172
   1 H     1.0000    0     1.008    1.961506    0.000000   -0.609915
   2 H     1.0000    0     1.008   -0.980752    1.698708   -0.609915
   3 H     1.0000    0     1.008   -0.980752   -1.698708   -0.609915

--------------------------------
INTERNAL COORDINATES (ANGSTROEM)
--------------------------------
 C      0   0   0     0.000000000000     0.00000000     0.00000000
 H      1   0   0     1.087506349232     0.00000000     0.00000000
 H      1   2   0     1.087501573818   111.50000009     0.00000000
 H      1   2   3     1.087501599511   111.50000009   125.34757007

---------------------------
INTERNAL COORDINATES (A.U.)
---------------------------
 C      0   0   0     0.000000000000     0.00000000     0.00000000
 H      1   0   0     2.055089168949     0.00000000     0.00000000
 H      1   2   0     2.055080144725   111.50000009     0.00000000
 H      1   2   3     2.055080193277   111.50000009   125.34757007

---------------------
BASIS SET INFORMATION
---------------------
There are 2 groups of distinct atoms

 Group   1 Type C   : 12s6p3d1f contracted to 6s3p3d1f pattern {621111/411/111/1}
 Group   2 Type H   : 5s2p contracted to 3s2p pattern {311/11}

Atom   0C    basis set group =>   1
Atom   1H    basis set group =>   2
Atom   2H    basis set group =>   2
Atom   3H    basis set group =>   2
---------------------------------
AUXILIARY/J BASIS SET INFORMATION
---------------------------------
There are 2 groups of distinct atoms

 Group   1 Type C   : 12s5p4d2f1g contracted to 6s4p3d1f1g pattern {711111/2111/211/2/1}
 Group   2 Type H   : 5s2p1d contracted to 3s1p1d pattern {311/2/1}

[...]

  NA   - Mulliken gross atomic population
  ZA   - Total nuclear charge
  QA   - Mulliken gross atomic charge
  VA   - Mayer's total valence
  BVA  - Mayer's bonded valence
  FA   - Mayer's free valence

  ATOM       NA         ZA         QA         VA         BVA        FA
  0 C      6.7064     6.0000    -0.7064     3.7703     2.9448     0.8256
  1 H      0.7648     1.0000     0.2352     1.0088     1.0074     0.0013
  2 H      0.7644     1.0000     0.2356     1.0084     1.0071     0.0013
  3 H      0.7644     1.0000     0.2356     1.0084     1.0071     0.0013

  Mayer bond orders larger than 0.100000
B(  0-C ,  1-H ) :   0.9819 B(  0-C ,  2-H ) :   0.9814 B(  0-C ,  3-H ) :   0.9814 


-------
TIMINGS
-------

Total SCF time: 0 days 0 hours 0 min 9 sec 

Total time                  ....       9.901 sec
Sum of individual times     ....       8.086 sec  ( 81.7%)

Fock matrix formation       ....       6.299 sec  ( 63.6%)
  Split-RI-J                ....       0.710 sec  ( 11.3% of F)
  Chain of spheres X        ....       0.911 sec  ( 14.5% of F)
  XC integration            ....       1.226 sec  ( 19.5% of F)
    Basis function eval.    ....       0.025 sec  (  2.0% of XC)
    Density eval.           ....       0.035 sec  (  2.9% of XC)
    XC-Functional eval.     ....       0.037 sec  (  3.0% of XC)
    XC-Potential eval.      ....       0.032 sec  (  2.6% of XC)
Diagonalization             ....       0.128 sec  (  1.3%)
Density matrix formation    ....       0.015 sec  (  0.2%)
Population analysis         ....       0.368 sec  (  3.7%)
Initial guess               ....       0.008 sec  (  0.1%)
Orbital Transformation      ....       0.000 sec  (  0.0%)
Orbital Orthonormalization  ....       0.002 sec  (  0.0%)
DIIS solution               ....       0.419 sec  (  4.2%)
Grid generation             ....       0.849 sec  (  8.6%)

Maximum memory used throughout the entire SCF-calculation: 58.5 MB


-------------------------------------------------------------------------------
                          DFT DISPERSION CORRECTION                            
                                                                               
                              DFTD3 V3.1  Rev 1                                
                              USING zero damping                               
-------------------------------------------------------------------------------
The omegaB97X-D3 functional is recognized. Fit by Chai et al.
Active option DFTDOPT                   ...         3   

molecular C6(AA) [au] = 106.978748 


            DFT-D V3
 parameters
 s6 scaling factor         :     1.0000 
 rs6 scaling factor        :     1.2810 
 s8 scaling factor         :     1.0000 
 rs8 scaling factor        :     1.0940 
 Damping factor alpha6     :    14.0000 
 Damping factor alpha8     :    16.0000 
 ad hoc parameters k1-k3   :    16.0000     1.3333    -4.0000 

 Edisp/kcal,au: -0.008464428683  -0.000013488924 
 E6   /kcal   :  -0.001319624 
 E8   /kcal   :  -0.007144805 
 % E8         :  84.409770044 

-------------------------   ----------------
Dispersion correction           -0.000013489
-------------------------   ----------------


-------------------------   --------------------
FINAL SINGLE POINT ENERGY       -39.831419747206
-------------------------   --------------------

                                *** OPTIMIZATION RUN DONE ***

                            ***************************************
                            *     ORCA property calculations      *
                            ***************************************

                                    ---------------------
                                    Active property flags
                                    ---------------------
   (+) Dipole Moment


------------------------------------------------------------------------------
                       ORCA ELECTRIC PROPERTIES CALCULATION
------------------------------------------------------------------------------

Dipole Moment Calculation                       ... on
Quadrupole Moment Calculation                   ... off
Polarizability Calculation                      ... off
GBWName                                         ... /beegfs/scratch/ispackman/PFAS_EPR_calcs/benchmark/JChemEd_CF3_radical/CH3_radical_111.5_degrees_IN-PROGRESS/CH3_radical_111.5_degrees.gbw
Electron density                                ... /beegfs/scratch/ispackman/PFAS_EPR_calcs/benchmark/JChemEd_CF3_radical/CH3_radical_111.5_degrees_IN-PROGRESS/CH3_radical_111.5_degrees.scfp
The origin for moment calculation is the CENTER OF MASS  = (-0.000002,  0.000000 -0.120138)

-------------
DIPOLE MOMENT
-------------
                                X             Y             Z
Electronic contribution:      0.00019      -0.00000       0.49946
Nuclear contribution   :      0.00000      -0.00000      -0.72947
                        -----------------------------------------
Total Dipole Moment    :      0.00020      -0.00000      -0.23001
                        -----------------------------------------
Magnitude (a.u.)       :      0.23001
Magnitude (Debye)      :      0.58463



--------------------
Rotational spectrum 
--------------------
 
Rotational constants in cm-1:     8.951071     8.951026     5.174106 
Rotational constants in MHz : 268346.364205 268345.009047 155115.780774 

 Dipole components along the rotational axes: 
x,y,z [a.u.] :    -0.000196    -0.000001    -0.230007 
x,y,z [Debye]:    -0.000498    -0.000001    -0.584631 

 


           ************************************************************
           *        Program running with 18 parallel MPI-processes    *
           *              working on a common directory               *
           ************************************************************

-------------------------------------------------------------------------------
                               ORCA SCF HESSIAN
-------------------------------------------------------------------------------

                   --------- SHARK INITIALIZATION DONE ---------

Hessian of the Kohn-Sham DFT energy:
Kohn-Sham wavefunction type                      ... UKS
Hartree-Fock exchange scaling                    ...    0.196
Number of operators                              ...    2
Number of atoms                                  ...    4
Basis set dimensions                             ...   64
Integral neglect threshold                       ... 2.5e-11
Integral primitive cutoff                        ... 2.5e-12

Setting up DFT Hessian calculations              ... 

HESS GRID
---------

General Integration Accuracy     IntAcc      ... 4.629
Radial Grid Type                 RadialGrid  ... OptM3 with GC (2021)
Angular Grid (max. ang.)         AngularGrid ... 5 (Lebedev-434)
Angular grid pruning method      GridPruning ... 4 (adaptive)
Weight generation scheme         WeightScheme... Becke
Basis function cutoff            BFCut       ... 1.0000e-11
Integration weight cutoff        WCut        ... 1.0000e-14
Angular grids for H and He will be reduced by one unit
Partially contracted basis set               ... off
Rotationally invariant grid construction     ... off

Total number of grid points                  ...    27249
Total number of batches                      ...      427
Average number of points per batch           ...       63
Average number of grid points per atom       ...     6812

Building densities                               ... done   (      0.0 sec)
Calculating rho(r) on the grid                   ... done   (      0.1 sec)
Building xc-kernel on the grid                   ... done   (      0.1 sec)
                                                     done   (      0.5 sec)

Nuclear repulsion Hessian  (SHARK)               ... done   (      0.0 sec)

----------------------------------------------
Forming right-hand sides of CP-SCF equations     ...
----------------------------------------------
One electron integral derivatives  (SHARK)       ... done   (      0.0 sec)
Transforming the overlap derivative matrices     ... done   (      0.0 sec)
Making the Q(x) pseudodensities                  ... done   (      0.0 sec)
Adding the E*S(x)*S(y) terms to the Hessian      ... done   (      0.0 sec)
Calculating energy weighted overlap derivatives  ... done   (      0.1 sec)
Two electron integral derivatives (SHARK-RI)     ... done   (      0.7 sec)
Exchange-correlation integral derivatives        ... done   (      0.4 sec)
tr(F(y)Q(x)) contribution to the Hessian         ... done   (      0.0 sec)
Response fock operator R(S(x)) (SHARK-RIJCOSX)   ... done   (      0.7 sec)
XC Response fock operator R(S(x))                ... done   (      0.1 sec)
tr(F(y)S(x)) contribution to the Hessian         ... done   (      0.0 sec)
Transforming and finalizing RHSs                 ... done   (      0.0 sec)

----------------------------------------------
Solving the CP-SCF equations (RIJCOSX)           ...
----------------------------------------------
     CP-SCF ITERATION   0:   8.9816e-02 (   0.4 sec   0/ 12 done)
     CP-SCF ITERATION   1:   2.5174e-02 (   0.4 sec   0/ 12 done)
     CP-SCF ITERATION   2:   6.7453e-03 (   0.4 sec   0/ 12 done)
     CP-SCF ITERATION   3:   2.0693e-03 (   0.4 sec   0/ 12 done)
     CP-SCF ITERATION   4:   4.2325e-04 (   0.4 sec   1/ 12 done)
     CP-SCF ITERATION   5:   9.0339e-05 (   0.4 sec  12/ 12 done)
                    *** THE CP-SCF HAS CONVERGED ***

                                                 ... done   (      3.0 sec)
Forming perturbed density Hessian contributions  ... done   (      0.0 sec)
2nd integral derivative contribs (SHARK-RI)      ... done   (      0.9 sec)
Exchange-correlation Hessian                     ... done   (      0.3 sec)
Dispersion correction in the Hessian             ... done   (      0.1 sec)
Dipole derivatives                               ... (center of mass: -0.000002,  0.000000 -0.120138)done   (      0.2 sec)

Total SCF Hessian time: 0 days 0 hours 0 min 7 sec 

Writing the Hessian file to the disk             ... done


Maximum memory used throughout the entire SCFHESS-calculation: 109.8 MB

-----------------------
VIBRATIONAL FREQUENCIES
-----------------------

Scaling factor for frequencies =  1.000000000  (already applied!)

   0:         0.00 cm**-1
   1:         0.00 cm**-1
   2:         0.00 cm**-1
   3:         0.00 cm**-1
   4:         0.00 cm**-1
   5:         0.00 cm**-1
   6:      1083.69 cm**-1
   7:      1420.24 cm**-1
   8:      1422.77 cm**-1
   9:      3087.19 cm**-1
  10:      3213.15 cm**-1
  11:      3213.26 cm**-1


------------
NORMAL MODES
------------

These modes are the Cartesian displacements weighted by the diagonal matrix
M(i,i)=1/sqrt(m[i]) where m[i] is the mass of the displaced atom
Thus, these vectors are normalized but *not* orthogonal

                  0          1          2          3          4          5    
      0       0.000000   0.000000   0.000000   0.000000   0.000000   0.000000
      1       0.000000   0.000000   0.000000   0.000000   0.000000   0.000000
      2       0.000000   0.000000   0.000000   0.000000   0.000000   0.000000
      3       0.000000   0.000000   0.000000   0.000000   0.000000   0.000000
      4       0.000000   0.000000   0.000000   0.000000   0.000000   0.000000
      5       0.000000   0.000000   0.000000   0.000000   0.000000   0.000000
      6       0.000000   0.000000   0.000000   0.000000   0.000000   0.000000
      7       0.000000   0.000000   0.000000   0.000000   0.000000   0.000000
      8       0.000000   0.000000   0.000000   0.000000   0.000000   0.000000
      9       0.000000   0.000000   0.000000   0.000000   0.000000   0.000000
     10       0.000000   0.000000   0.000000   0.000000   0.000000   0.000000
     11       0.000000   0.000000   0.000000   0.000000   0.000000   0.000000
                  6          7          8          9         10         11    
      0       0.000447  -0.082974  -0.000000  -0.000092  -0.094881  -0.000098
      1       0.000000   0.000000  -0.083015  -0.000000  -0.000098   0.094845
      2      -0.137465  -0.000642  -0.000000  -0.035073   0.000021  -0.000000
      3       0.170646  -0.117977  -0.000000  -0.559437   0.777977   0.000807
      4      -0.000000  -0.000002   0.778138   0.000000  -0.000025   0.024155
      5       0.547103  -0.203468  -0.000001   0.139075  -0.235665  -0.000244
      6      -0.087984   0.553333   0.388340   0.280269   0.175936   0.347344
      7       0.145196   0.389329   0.105521  -0.485015  -0.346056  -0.577506
      8       0.545443   0.105558  -0.178504   0.139420   0.117494   0.204063
      9      -0.087984   0.553336  -0.388337   0.280270   0.176657  -0.346978
     10      -0.145196  -0.389330   0.105519   0.485017   0.347254  -0.576785
     11       0.545442   0.105557   0.178504   0.139421   0.117917  -0.203819


-----------
IR SPECTRUM
-----------

 Mode   freq       eps      Int      T**2         TX        TY        TZ
       cm**-1   L/(mol*cm) km/mol    a.u.
----------------------------------------------------------------------------
  6:   1083.69   0.005044   25.49  0.001452  (-0.000091 -0.000000  0.038110)
  7:   1420.24   0.000604    3.05  0.000133  ( 0.011521 -0.000000  0.000269)
  8:   1422.77   0.000606    3.06  0.000133  ( 0.000000  0.011526  0.000000)
  9:   3087.19   0.000014    0.07  0.000001  ( 0.000002 -0.000000 -0.001191)
 10:   3213.15   0.003424   17.30  0.000333  (-0.018235 -0.000019  0.000021)
 11:   3213.26   0.003464   17.50  0.000336  (-0.000019  0.018341  0.000000)

* The epsilon (eps) is given for a Dirac delta lineshape.
** The dipole moment derivative (T) already includes vibrational overlap.

The first frequency considered to be a vibration is 6
The total number of vibrations considered is 6


--------------------------
THERMOCHEMISTRY AT 298.15K
--------------------------

Temperature         ... 298.15 K
Pressure            ... 1.00 atm
Total Mass          ... 15.03 AMU

Throughout the following assumptions are being made:
  (1) The electronic state is orbitally nondegenerate
      but the spin degeneracy is treated
  (2) There are no thermally accessible electronically excited states
  (3) Hindered rotations indicated by low frequency modes are not
      treated as such but are treated as vibrations and this may
      cause some error
  (4) All equations used are the standard statistical mechanics
      equations for an ideal gas
  (5) All vibrations are strictly harmonic

freq.    1083.69  E(vib)   ...       0.02 
freq.    1420.24  E(vib)   ...       0.00 
freq.    1422.77  E(vib)   ...       0.00 
freq.    3087.19  E(vib)   ...       0.00 
freq.    3213.15  E(vib)   ...       0.00 
freq.    3213.26  E(vib)   ...       0.00 

------------
INNER ENERGY
------------

The inner energy is: U= E(el) + E(ZPE) + E(vib) + E(rot) + E(trans)
    E(el)   - is the total energy from the electronic structure calculation
              = E(kin-el) + E(nuc-el) + E(el-el) + E(nuc-nuc)
    E(ZPE)  - the the zero temperature vibrational energy from the frequency calculation
    E(vib)  - the the finite temperature correction to E(ZPE) due to population
              of excited vibrational states
    E(rot)  - is the rotational thermal energy
    E(trans)- is the translational thermal energy

Summary of contributions to the inner energy U:
Electronic energy                ...    -39.83141975 Eh
Zero point energy                ...      0.03061928 Eh      19.21 kcal/mol
Thermal vibrational correction   ...      0.00004021 Eh       0.03 kcal/mol
Thermal rotational correction    ...      0.00141627 Eh       0.89 kcal/mol
Thermal translational correction ...      0.00141627 Eh       0.89 kcal/mol
-----------------------------------------------------------------------
Total thermal energy                    -39.79792772 Eh


Summary of corrections to the electronic energy:
(perhaps to be used in another calculation)
Total thermal correction                  0.00287275 Eh       1.80 kcal/mol
Non-thermal (ZPE) correction              0.03061928 Eh      19.21 kcal/mol
-----------------------------------------------------------------------
Total correction                          0.03349203 Eh      21.02 kcal/mol


--------
ENTHALPY
--------

The enthalpy is H = U + kB*T
                kB is Boltzmann's constant
Total free energy                 ...    -39.79792772 Eh 
Thermal Enthalpy correction       ...      0.00094421 Eh       0.59 kcal/mol
-----------------------------------------------------------------------
Total Enthalpy                    ...    -39.79698351 Eh


Note: Rotational entropy computed according to Herzberg 
Infrared and Raman Spectra, Chapter V,1, Van Nostrand Reinhold, 1945 
Point Group:  C3v, Symmetry Number:   3  
Rotational constants in cm-1:     8.951071     8.951026     5.174106 

Vibrational entropy computed according to the QRRHO of S. Grimme
Chem.Eur.J. 2012 18 9955


-------
ENTROPY
-------

The entropy contributions are T*S = T*(S(el)+S(vib)+S(rot)+S(trans))
     S(el)   - electronic entropy
     S(vib)  - vibrational entropy
     S(rot)  - rotational entropy
     S(trans)- translational entropy
The entropies will be listed as multiplied by the temperature to get
units of energy

Electronic entropy                ...      0.00065446 Eh      0.41 kcal/mol
Vibrational entropy               ...      0.00004728 Eh      0.03 kcal/mol
Rotational entropy                ...      0.00562813 Eh      3.53 kcal/mol
Translational entropy             ...      0.01618771 Eh     10.16 kcal/mol
-----------------------------------------------------------------------
Final entropy term                ...      0.02251758 Eh     14.13 kcal/mol

In case the symmetry of your molecule has not been determined correctly
or in case you have a reason to use a different symmetry number we print 
out the resulting rotational entropy values for sn=1,12 :
 --------------------------------------------------------
|  sn= 1 | S(rot)=       0.00666542 Eh      4.18 kcal/mol|
|  sn= 2 | S(rot)=       0.00601097 Eh      3.77 kcal/mol|
|  sn= 3 | S(rot)=       0.00562813 Eh      3.53 kcal/mol|
|  sn= 4 | S(rot)=       0.00535651 Eh      3.36 kcal/mol|
|  sn= 5 | S(rot)=       0.00514582 Eh      3.23 kcal/mol|
|  sn= 6 | S(rot)=       0.00497368 Eh      3.12 kcal/mol|
|  sn= 7 | S(rot)=       0.00482813 Eh      3.03 kcal/mol|
|  sn= 8 | S(rot)=       0.00470205 Eh      2.95 kcal/mol|
|  sn= 9 | S(rot)=       0.00459085 Eh      2.88 kcal/mol|
|  sn=10 | S(rot)=       0.00449137 Eh      2.82 kcal/mol|
|  sn=11 | S(rot)=       0.00440138 Eh      2.76 kcal/mol|
|  sn=12 | S(rot)=       0.00431922 Eh      2.71 kcal/mol|
 --------------------------------------------------------


-------------------
GIBBS FREE ENERGY
-------------------

The Gibbs free energy is G = H - T*S

Total enthalpy                    ...    -39.79698351 Eh 
Total entropy correction          ...     -0.02251758 Eh    -14.13 kcal/mol
-----------------------------------------------------------------------
Final Gibbs free energy         ...    -39.81950108 Eh

For completeness - the Gibbs free energy minus the electronic energy
G-E(el)                           ...      0.01191866 Eh      7.48 kcal/mol


Timings for individual modules:

Sum of individual times         ...       74.325 sec (=   1.239 min)
GTO integral calculation        ...        9.110 sec (=   0.152 min)  12.3 %
SCF iterations                  ...       48.034 sec (=   0.801 min)  64.6 %
SCF Gradient evaluation         ...        6.684 sec (=   0.111 min)   9.0 %
Geometry relaxation             ...        0.172 sec (=   0.003 min)   0.2 %
Analytical frequency calculation...       10.325 sec (=   0.172 min)  13.9 %
                             ****ORCA TERMINATED NORMALLY****
TOTAL RUN TIME: 0 days 0 hours 1 minutes 24 seconds 371 msec

slurmID:    32260114
totalRuntime[s]:    84.408569811
