
                                 *****************
                                 * O   R   C   A *
                                 *****************

                                            #,                                       
                                            ###                                      
                                            ####                                     
                                            #####                                    
                                            ######                                   
                                           ########,                                 
                                     ,,################,,,,,                         
                               ,,#################################,,                 
                          ,,##########################################,,             
                       ,#########################################, ''#####,          
                    ,#############################################,,   '####,        
                  ,##################################################,,,,####,       
                ,###########''''           ''''###############################       
              ,#####''   ,,,,##########,,,,          '''####'''          '####       
            ,##' ,,,,###########################,,,                        '##       
           ' ,,###''''                  '''############,,,                           
         ,,##''                                '''############,,,,        ,,,,,,###''
      ,#''                                            '''#######################'''  
     '                                                          ''''####''''         
             ,#######,   #######,   ,#######,      ##                                
            ,#'     '#,  ##    ##  ,#'     '#,    #''#        ######   ,####,        
            ##       ##  ##   ,#'  ##            #'  '#       #        #'  '#        
            ##       ##  #######   ##           ,######,      #####,   #    #        
            '#,     ,#'  ##    ##  '#,     ,#' ,#      #,         ##   #,  ,#        
             '#######'   ##     ##  '#######'  #'      '#     #####' # '####'        



                  #######################################################
                  #                        -***-                        #
                  #          Department of theory and spectroscopy      #
                  #    Directorship and core code : Frank Neese         #
                  #        Max Planck Institute fuer Kohlenforschung    #
                  #                Kaiser Wilhelm Platz 1               #
                  #                 D-45470 Muelheim/Ruhr               #
                  #                      Germany                        #
                  #                                                     #
                  #                  All rights reserved                #
                  #                        -***-                        #
                  #######################################################


                         Program Version 5.0.4 -  RELEASE  -


 With contributions from (in alphabetic order):
   Daniel Aravena         : Magnetic Suceptibility
   Michael Atanasov       : Ab Initio Ligand Field Theory (pilot matlab implementation)
   Alexander A. Auer      : GIAO ZORA, VPT2 properties, NMR spectrum
   Ute Becker             : Parallelization
   Giovanni Bistoni       : ED, misc. LED, open-shell LED, HFLD
   Martin Brehm           : Molecular dynamics
   Dmytro Bykov           : SCF Hessian
   Vijay G. Chilkuri      : MRCI spin determinant printing, contributions to CSF-ICE
   Dipayan Datta          : RHF DLPNO-CCSD density
   Achintya Kumar Dutta   : EOM-CC, STEOM-CC
   Dmitry Ganyushin       : Spin-Orbit,Spin-Spin,Magnetic field MRCI
   Miquel Garcia          : C-PCM and meta-GGA Hessian, CC/C-PCM, Gaussian charge scheme
   Yang Guo               : DLPNO-NEVPT2, F12-NEVPT2, CIM, IAO-localization
   Andreas Hansen         : Spin unrestricted coupled pair/coupled cluster methods
   Benjamin Helmich-Paris : MC-RPA, TRAH-SCF, COSX integrals
   Lee Huntington         : MR-EOM, pCC
   Robert Izsak           : Overlap fitted RIJCOSX, COSX-SCS-MP3, EOM
   Marcus Kettner         : VPT2
   Christian Kollmar      : KDIIS, OOCD, Brueckner-CCSD(T), CCSD density, CASPT2, CASPT2-K
   Simone Kossmann        : Meta GGA functionals, TD-DFT gradient, OOMP2, MP2 Hessian
   Martin Krupicka        : Initial AUTO-CI
   Lucas Lang             : DCDCAS
   Marvin Lechner         : AUTO-CI (C++ implementation), FIC-MRCC
   Dagmar Lenk            : GEPOL surface, SMD
   Dimitrios Liakos       : Extrapolation schemes; Compound Job, initial MDCI parallelization
   Dimitrios Manganas     : Further ROCIS development; embedding schemes
   Dimitrios Pantazis     : SARC Basis sets
   Anastasios Papadopoulos: AUTO-CI, single reference methods and gradients
   Taras Petrenko         : DFT Hessian,TD-DFT gradient, ASA, ECA, R-Raman, ABS, FL, XAS/XES, NRVS
   Peter Pinski           : DLPNO-MP2, DLPNO-MP2 Gradient
   Christoph Reimann      : Effective Core Potentials
   Marius Retegan         : Local ZFS, SOC
   Christoph Riplinger    : Optimizer, TS searches, QM/MM, DLPNO-CCSD(T), (RO)-DLPNO pert. Triples
   Tobias Risthaus        : Range-separated hybrids, TD-DFT gradient, RPA, STAB
   Michael Roemelt        : Original ROCIS implementation
   Masaaki Saitow         : Open-shell DLPNO-CCSD energy and density
   Barbara Sandhoefer     : DKH picture change effects
   Avijit Sen             : IP-ROCIS
   Kantharuban Sivalingam : CASSCF convergence, NEVPT2, FIC-MRCI
   Bernardo de Souza      : ESD, SOC TD-DFT
   Georgi Stoychev        : AutoAux, RI-MP2 NMR, DLPNO-MP2 response
   Willem Van den Heuvel  : Paramagnetic NMR
   Boris Wezisla          : Elementary symmetry handling
   Frank Wennmohs         : Technical directorship


 We gratefully acknowledge several colleagues who have allowed us to
 interface, adapt or use parts of their codes:
   Stefan Grimme, W. Hujo, H. Kruse, P. Pracht,  : VdW corrections, initial TS optimization,
                  C. Bannwarth, S. Ehlert          DFT functionals, gCP, sTDA/sTD-DF
   Ed Valeev, F. Pavosevic, A. Kumar             : LibInt (2-el integral package), F12 methods
   Garnet Chan, S. Sharma, J. Yang, R. Olivares  : DMRG
   Ulf Ekstrom                                   : XCFun DFT Library
   Mihaly Kallay                                 : mrcc  (arbitrary order and MRCC methods)
   Jiri Pittner, Ondrej Demel                    : Mk-CCSD
   Frank Weinhold                                : gennbo (NPA and NBO analysis)
   Christopher J. Cramer and Donald G. Truhlar   : smd solvation model
   Lars Goerigk                                  : TD-DFT with DH, B97 family of functionals
   V. Asgeirsson, H. Jonsson                     : NEB implementation
   FAccTs GmbH                                   : IRC, NEB, NEB-TS, DLPNO-Multilevel, CI-OPT
                                                   MM, QMMM, 2- and 3-layer-ONIOM, Crystal-QMMM,
                                                   LR-CPCM, SF, NACMEs, symmetry and pop. for TD-DFT,
                                                   nearIR, NL-DFT gradient (VV10), updates on ESD,
                                                   ML-optimized integration grids
   S Lehtola, MJT Oliveira, MAL Marques          : LibXC Library
   Liviu Ungur et al                             : ANISO software


 Your calculation uses the libint2 library for the computation of 2-el integrals
 For citations please refer to: http://libint.valeyev.net

 Your ORCA version has been built with support for libXC version: 5.1.0
 For citations please refer to: https://tddft.org/programs/libxc/

 This ORCA versions uses:
   CBLAS   interface :  Fast vector & matrix operations
   LAPACKE interface :  Fast linear algebra routines
   SCALAPACK package :  Parallel linear algebra routines
   Shared memory     :  Shared parallel matrices
   BLAS/LAPACK       :  OpenBLAS 0.3.15  USE64BITINT DYNAMIC_ARCH NO_AFFINITY SkylakeX SINGLE_THREADED
        Core in use  :  SkylakeX
   Copyright (c) 2011-2014, The OpenBLAS Project


Your calculation utilizes the atom-pairwise dispersion correction
with the zero-damping scheme (D30)
Cite in your paper:
S.Grimme, J.Antony, S.Ehrlich and H.Krieg, J.Chem.Phys., 132, (2010), 154104 
   

XCFun DFT library Copyright 2009-2010 Ulf Ekstrom and contributors.
See http://admol.org/xcfun for more information.
This is free software; see the source code for copying conditions.
There is ABSOLUTELY NO WARRANTY; not even for MERCHANTABILITY or FITNESS FOR A PARTICULAR PURPOSE.
For details see the documentation.
Scientific users of this library should cite U. Ekstrom, L. Visscher, R. Bast, A. J. Thorvaldsen and K. Ruud;
J.Chem.Theor.Comp. 2010, DOI: 10.1021/ct100117s
XCFun Version 0.99 

================================================================================

----- Orbital basis set information -----
Your calculation utilizes the basis: def2-TZVPD
   F. Weigend and R. Ahlrichs, Phys. Chem. Chem. Phys. 7, 3297 (2005).
   D. Rappoport and F. Furche, J. Chem. Phys. 133 134105 (2010).

----- AuxJ basis set information -----
Your calculation utilizes the auxiliary basis: def2/J
   F. Weigend, Phys. Chem. Chem. Phys. 8, 1057 (2006).

================================================================================
                                        WARNINGS
                       Please study these warnings very carefully!
================================================================================


WARNING: Geometry Optimization
  ===> : Switching off AutoStart
         For restart on a previous wavefunction, please use MOREAD

INFO   : the flag for use of the SHARK integral package has been found!

================================================================================
                                       INPUT FILE
================================================================================
NAME = /beegfs/scratch/ispackman/PFAS_EPR_calcs/benchmark/JChemEd_CF3_radical/CH3_radical_96.5_degrees_IN-PROGRESS/CH3_radical_96.5_degrees.inp
|  1> ! UKS TightSCF wB97x-D3 def2-TZVPD xyzfile opt freq
|  2> 
|  3> # CH3 radical 96.5 degrees fixed
|  4> 
|  5> %maxcore 1000
|  6> %pal
|  7> nprocs 18
|  8> end
|  9> 
| 10> %geom Constraints
| 11>         { A * 0 * C }
| 12>     end
| 13> end
| 14> * xyz 0 2
| 15> C 0.00 0.00 0.00
| 16> H 0.9303906809 0.0000000000 -0.5484279178
| 17> H -0.4651953404 0.8057419651 -0.5484279178
| 18> H -0.4651953404 -0.8057419651 -0.5484279178
| 19> **                         ****END OF INPUT****
================================================================================

                       *****************************
                       * Geometry Optimization Run *
                       *****************************

Geometry optimization settings:
Update method            Update   .... BFGS
Choice of coordinates    CoordSys .... Z-matrix Internals
Initial Hessian          InHess   .... Almoef's Model

Convergence Tolerances:
Energy Change            TolE     ....  5.0000e-06 Eh
Max. Gradient            TolMAXG  ....  3.0000e-04 Eh/bohr
RMS Gradient             TolRMSG  ....  1.0000e-04 Eh/bohr
Max. Displacement        TolMAXD  ....  4.0000e-03 bohr
RMS Displacement         TolRMSD  ....  2.0000e-03 bohr
Strict Convergence                ....  False
------------------------------------------------------------------------------
                        ORCA OPTIMIZATION COORDINATE SETUP
------------------------------------------------------------------------------

The optimization will be done in new redundant internal coordinates
Making redundant internal coordinates   ...  (new redundants) done
Evaluating the initial hessian          ...  (Almloef) done
Evaluating the coordinates              ...  done
Calculating the B-matrix                .... done
Calculating the G-matrix                .... done
Diagonalizing the G-matrix              .... done
Imposing constraints:
 Iter   0:  RMS(Cart)=    0.0000000000 RMS(Int)=    0.0000000000
CONVERGED
Will constrain atom 0 coordinate 1 
Will constrain atom 0 coordinate 2 
Will constrain atom 1 coordinate 2 
The first mode is                       ....    1
The number of degrees of freedom        ....    6
Storing new coordinates                 .... done

    -----------------------------------------------------------------
                    Redundant Internal Coordinates


    -----------------------------------------------------------------
         Definition                    Initial Value    Approx d2E/dq
    -----------------------------------------------------------------
      1. B(H   1,C   0)                  1.0800         0.373575   
      2. B(H   2,C   0)                  1.0800         0.373575   
      3. B(H   3,C   0)                  1.0800         0.373575   
      4. A(H   2,C   0,H   3)           96.5000         0.294224 C 
      5. A(H   1,C   0,H   2)           96.5000         0.294224 C 
      6. A(H   1,C   0,H   3)           96.5000         0.294224 C 
      7. I(H   1,H   3,H   2,C   0)     80.2119         0.002517   
    -----------------------------------------------------------------

Number of atoms                         .... 4
Number of degrees of freedom            .... 7

         *************************************************************
         *                GEOMETRY OPTIMIZATION CYCLE   1            *
         *************************************************************
---------------------------------
CARTESIAN COORDINATES (ANGSTROEM)
---------------------------------
  C      0.000000    0.000000    0.000000
  H      0.930391    0.000000   -0.548428
  H     -0.465195    0.805742   -0.548428
  H     -0.465195   -0.805742   -0.548428

----------------------------
CARTESIAN COORDINATES (A.U.)
----------------------------
  NO LB      ZA    FRAG     MASS         X           Y           Z
   0 C     6.0000    0    12.011    0.000000    0.000000    0.000000
   1 H     1.0000    0     1.008    1.758184    0.000000   -1.036379
   2 H     1.0000    0     1.008   -0.879092    1.522632   -1.036379
   3 H     1.0000    0     1.008   -0.879092   -1.522632   -1.036379

--------------------------------
INTERNAL COORDINATES (ANGSTROEM)
--------------------------------
 C      0   0   0     0.000000000000     0.00000000     0.00000000
 H      1   0   0     1.080000000059     0.00000000     0.00000000
 H      1   2   0     1.080000000035    96.50000000     0.00000000
 H      1   2   3     1.080000000035    96.50000000    97.33405060

---------------------------
INTERNAL COORDINATES (A.U.)
---------------------------
 C      0   0   0     0.000000000000     0.00000000     0.00000000
 H      1   0   0     2.040904224747     0.00000000     0.00000000
 H      1   2   0     2.040904224701    96.50000000     0.00000000
 H      1   2   3     2.040904224701    96.50000000    97.33405060

---------------------
BASIS SET INFORMATION
---------------------
There are 2 groups of distinct atoms

 Group   1 Type C   : 12s6p3d1f contracted to 6s3p3d1f pattern {621111/411/111/1}
 Group   2 Type H   : 5s2p contracted to 3s2p pattern {311/11}

Atom   0C    basis set group =>   1
Atom   1H    basis set group =>   2
Atom   2H    basis set group =>   2
Atom   3H    basis set group =>   2
---------------------------------
AUXILIARY/J BASIS SET INFORMATION
---------------------------------
There are 2 groups of distinct atoms

 Group   1 Type C   : 12s5p4d2f1g contracted to 6s4p3d1f1g pattern {711111/2111/211/2/1}
 Group   2 Type H   : 5s2p1d contracted to 3s1p1d pattern {311/2/1}

Atom   0C    basis set group =>   1
Atom   1H    basis set group =>   2
Atom   2H    basis set group =>   2
Atom   3H    basis set group =>   2


           ************************************************************
           *        Program running with 18 parallel MPI-processes    *
           *              working on a common directory               *
           ************************************************************
------------------------------------------------------------------------------
                           ORCA GTO INTEGRAL CALCULATION
                           -- RI-GTO INTEGRALS CHOSEN --
------------------------------------------------------------------------------
------------------------------------------------------------------------------
                   ___                                                        
                  /   \      - P O W E R E D   B Y -                         
                 /     \                                                     
                 |  |  |   _    _      __       _____    __    __             
                 |  |  |  | |  | |    /  \     |  _  \  |  |  /  |          
                  \  \/   | |  | |   /    \    | | | |  |  | /  /          
                 / \  \   | |__| |  /  /\  \   | |_| |  |  |/  /          
                |  |  |   |  __  | /  /__\  \  |    /   |      \           
                |  |  |   | |  | | |   __   |  |    \   |  |\   \          
                \     /   | |  | | |  |  |  |  | |\  \  |  | \   \       
                 \___/    |_|  |_| |__|  |__|  |_| \__\ |__|  \__/        
                                                                              
                      - O R C A' S   B I G   F R I E N D -                    
                                      &                                       
                       - I N T E G R A L  F E E D E R -                       
                                                                              
 v1 FN, 2020, v2 2021                                                         
------------------------------------------------------------------------------


Reading SHARK input file /beegfs/scratch/ispackman/PFAS_EPR_calcs/benchmark/JChemEd_CF3_radical/CH3_radical_96.5_degrees_IN-PROGRESS/CH3_radical_96.5_degrees.SHARKINP.tmp ... ok
----------------------
SHARK INTEGRAL PACKAGE
----------------------

Number of atoms                             ...      4
Number of basis functions                   ...     64
Number of shells                            ...     28
Maximum angular momentum                    ...      3
Integral batch strategy                     ... SHARK/LIBINT Hybrid
RI-J (if used) integral strategy            ... SPLIT-RIJ (Revised 2003 algorithm where possible)
Printlevel                                  ...      1
Contraction scheme used                     ... SEGMENTED contraction
Coulomb Range Separation                    ... NOT USED
Exchange Range Separation                   ... Long Range
   Mu parameter                             ...  0.250000
   Scaling (regular/separated)              ...  0.195728  0.804272
Finite Nucleus Model                        ... NOT USED
Auxiliary Coulomb fitting basis             ... AVAILABLE
   # of basis functions in Aux-J            ...     82
   # of shells in Aux-J                     ...     30
   Maximum angular momentum in Aux-J        ...      4
Auxiliary J/K fitting basis                 ... NOT available
Auxiliary Correlation fitting basis         ... NOT available
Auxiliary 'external' fitting basis          ... NOT available
Integral threshold                          ...     2.500000e-11
Primitive cut-off                           ...     2.500000e-12
Primitive pair pre-selection threshold      ...     2.500000e-12

Calculating pre-screening integrals         ... done (  0.0 sec) Dimension = 28
Organizing shell pair data                  ... done (  0.0 sec)
Shell pair information
Total number of shell pairs                 ...       406
Shell pairs after pre-screening             ...       406
Total number of primitive shell pairs       ...       977
Primitive shell pairs kept                  ...       947
          la=0 lb=0:    120 shell pairs
          la=1 lb=0:    135 shell pairs
          la=1 lb=1:     45 shell pairs
          la=2 lb=0:     45 shell pairs
          la=2 lb=1:     27 shell pairs
          la=2 lb=2:      6 shell pairs
          la=3 lb=0:     15 shell pairs
          la=3 lb=1:      9 shell pairs
          la=3 lb=2:      3 shell pairs
          la=3 lb=3:      1 shell pairs

Calculating one electron integrals          ... done (  0.0 sec)
Calculating RI/J V-Matrix + Cholesky decomp.... done (  0.0 sec)
Calculating Nuclear repulsion               ... done (  0.0 sec) ENN=      9.804756629369 Eh

SHARK setup successfully completed in   0.3 seconds

Maximum memory used throughout the entire GTOINT-calculation: 14.0 MB


           ************************************************************
           *        Program running with 18 parallel MPI-processes    *
           *              working on a common directory               *
           ************************************************************
-------------------------------------------------------------------------------
                                 ORCA SCF
-------------------------------------------------------------------------------

------------
SCF SETTINGS
------------
Hamiltonian:
 Density Functional     Method          .... DFT(GTOs)
 Exchange Functional    Exchange        .... WB97X-D3
 Correlation Functional Correlation     .... WB97X-D3
 Gradients option       PostSCFGGA      .... off
 Hybrid DFT is turned on
   Fraction HF Exchange ScalHFX         ....  0.195728
   Scaling of DF-GGA-X  ScalDFX         ....  0.000000
   Scaling of DF-GGA-C  ScalDFC         ....  1.000000
   Scaling of DF-LDA-C  ScalLDAC        ....  1.000000
   Perturbative correction              ....  0.000000
   Density functional embedding theory  .... OFF
 Long-range corrected/Screened/Range-Separated Hybrid DFT is turned on
   Amount of maximum screened exact exchange              ....  0.804272
   Range separation parameter mu (erf(mu*r12)/r12)        ....  0.250000
 RI-approximation to the Coulomb term is turned on
   Number of AuxJ basis functions       .... 82
   RIJ-COSX (HFX calculated with COS-X)).... on


General Settings:
 Integral files         IntName         .... /beegfs/scratch/ispackman/PFAS_EPR_calcs/benchmark/JChemEd_CF3_radical/CH3_radical_96.5_degrees_IN-PROGRESS/CH3_radical_96.5_degrees
 Hartree-Fock type      HFTyp           .... UHF
 Total Charge           Charge          ....    0
 Multiplicity           Mult            ....    2
 Number of Electrons    NEL             ....    9
 Basis Dimension        Dim             ....   64
 Nuclear Repulsion      ENuc            ....      9.8047566294 Eh

Convergence Acceleration:
 DIIS                   CNVDIIS         .... on
   Start iteration      DIISMaxIt       ....    12
   Startup error        DIISStart       ....  0.200000
   # of expansion vecs  DIISMaxEq       ....     5
   Bias factor          DIISBfac        ....   1.050
   Max. coefficient     DIISMaxC        ....  10.000
 Trust-Rad. Augm. Hess. CNVTRAH         .... auto
   Auto Start mean grad. ratio tolernc. ....  1.125000
   Auto Start start iteration           ....    20
   Auto Start num. interpolation iter.  ....    10
   Max. Number of Micro iterations      ....    16
   Max. Number of Macro iterations      .... Maxiter - #DIIS iter
   Number of Davidson start vectors     ....     2
   Converg. threshold I  (grad. norm)   ....   1.000e-05
   Converg. threshold II (energy diff.) ....   1.000e-08
   Grad. Scal. Fac. for Micro threshold ....   0.100
   Minimum threshold for Micro iter.    ....   0.010
   NR start threshold (gradient norm)   ....   0.001
   Initial trust radius                 ....   0.400
   Minimum AH scaling param. (alpha)    ....   1.000
   Maximum AH scaling param. (alpha)    .... 1000.000
   Orbital update algorithm             .... Taylor
   White noise on init. David. guess    .... on
   Maximum white noise                  ....   0.010
   Quad. conv. algorithm                .... NR
 SOSCF                  CNVSOSCF        .... off
 Level Shifting         CNVShift        .... on
   Level shift para.    LevelShift      ....    0.2500
   Turn off err/grad.   ShiftErr        ....    0.0010
 Zerner damping         CNVZerner       .... off
 Static damping         CNVDamp         .... on
   Fraction old density DampFac         ....    0.7000
   Max. Damping (<1)    DampMax         ....    0.9800
   Min. Damping (>=0)   DampMin         ....    0.0000
   Turn off err/grad.   DampErr         ....    0.1000
 Fernandez-Rico         CNVRico         .... off

SCF Procedure:
 Maximum # iterations   MaxIter         ....   125
 SCF integral mode      SCFMode         .... Direct
   Integral package                     .... SHARK and LIBINT hybrid scheme
 Reset frequency        DirectResetFreq ....    20
 Integral Threshold     Thresh          ....  2.500e-11 Eh
 Primitive CutOff       TCut            ....  2.500e-12 Eh

Convergence Tolerance:
 Convergence Check Mode ConvCheckMode   .... Total+1el-Energy
 Convergence forced     ConvForced      .... 0
 Energy Change          TolE            ....  1.000e-08 Eh
 1-El. energy change                    ....  1.000e-05 Eh
 DIIS Error             TolErr          ....  5.000e-07


Diagonalization of the overlap matrix:
Smallest eigenvalue                        ... 3.522e-05
Time for diagonalization                   ...    0.002 sec
Threshold for overlap eigenvalues          ... 1.000e-08
Number of eigenvalues below threshold      ... 0
Time for construction of square roots      ...    0.017 sec
Total time needed                          ...    0.020 sec

Time for model grid setup =    0.056 sec

------------------------------
INITIAL GUESS: MODEL POTENTIAL
------------------------------
Loading Hartree-Fock densities                     ... done
Calculating cut-offs                               ... done
Initializing the effective Hamiltonian             ... done
Setting up the integral package (SHARK)            ... done
Starting the Coulomb interaction                   ... done (   0.1 sec)
Reading the grid                                   ... done
Mapping shells                                     ... done
Starting the XC term evaluation                    ... done (   0.0 sec)
  promolecular density results
     # of electrons  =      8.997964457
     EX              =     -5.938243265
     EC              =     -0.260763442
     EX+EC           =     -6.199006707
Transforming the Hamiltonian                       ... done (   0.0 sec)
Diagonalizing the Hamiltonian                      ... done (   0.0 sec)
Back transforming the eigenvectors                 ... done (   0.0 sec)
Now organizing SCF variables                       ... done
                      ------------------
                      INITIAL GUESS DONE (   0.1 sec)
                      ------------------
-------------------
DFT GRID GENERATION
-------------------

General Integration Accuracy     IntAcc      ... 4.388
Radial Grid Type                 RadialGrid  ... OptM3 with GC (2021)
Angular Grid (max. ang.)         AngularGrid ... 4 (Lebedev-302)
Angular grid pruning method      GridPruning ... 4 (adaptive)
Weight generation scheme         WeightScheme... Becke
Basis function cutoff            BFCut       ... 1.0000e-11
Integration weight cutoff        WCut        ... 1.0000e-14
Angular grids for H and He will be reduced by one unit
Partially contracted basis set               ... off
Rotationally invariant grid construction     ... off

Total number of grid points                  ...    17035
Total number of batches                      ...      268
Average number of points per batch           ...       63
Average number of grid points per atom       ...     4259
Time for grid setup =    0.093 sec

--------------------
COSX GRID GENERATION
--------------------

GRIDX 1
-------
General Integration Accuracy     IntAcc      ... 3.816
Radial Grid Type                 RadialGrid  ... OptM3 with GC (2021)
Angular Grid (max. ang.)         AngularGrid ... 1 (Lebedev-50)
Angular grid pruning method      GridPruning ... 4 (adaptive)
Weight generation scheme         WeightScheme... Becke
Basis function cutoff            BFCut       ... 1.0000e-11
Integration weight cutoff        WCut        ... 1.0000e-14
Angular grids for H and He will be reduced by one unit
Partially contracted basis set               ... on
Rotationally invariant grid construction     ... off

Total number of grid points                  ...     2144
Total number of batches                      ...       36
Average number of points per batch           ...       59
Average number of grid points per atom       ...      536
UseSFitting                                  ... on

GRIDX 2
-------
General Integration Accuracy     IntAcc      ... 4.020
Radial Grid Type                 RadialGrid  ... OptM3 with GC (2021)
Angular Grid (max. ang.)         AngularGrid ... 2 (Lebedev-110)
Angular grid pruning method      GridPruning ... 4 (adaptive)
Weight generation scheme         WeightScheme... Becke
Basis function cutoff            BFCut       ... 1.0000e-11
Integration weight cutoff        WCut        ... 1.0000e-14
Angular grids for H and He will be reduced by one unit
Partially contracted basis set               ... on
Rotationally invariant grid construction     ... off

Total number of grid points                  ...     5056
Total number of batches                      ...       81
Average number of points per batch           ...       62
Average number of grid points per atom       ...     1264
UseSFitting                                  ... on

GRIDX 3
-------
General Integration Accuracy     IntAcc      ... 4.338
Radial Grid Type                 RadialGrid  ... OptM3 with GC (2021)
Angular Grid (max. ang.)         AngularGrid ... 3 (Lebedev-194)
Angular grid pruning method      GridPruning ... 4 (adaptive)
Weight generation scheme         WeightScheme... Becke
Basis function cutoff            BFCut       ... 1.0000e-11
Integration weight cutoff        WCut        ... 1.0000e-14
Angular grids for H and He will be reduced by one unit
Partially contracted basis set               ... on
Rotationally invariant grid construction     ... off

Total number of grid points                  ...    11716
Total number of batches                      ...      185
Average number of points per batch           ...       63
Average number of grid points per atom       ...     2929
UseSFitting                                  ... on

Time for X-Grid setup             =    0.278 sec

--------------
SCF ITERATIONS
--------------
ITER       Energy         Delta-E        Max-DP      RMS-DP      [F,P]     Damp
               ***  Starting incremental Fock matrix formation  ***
  0    -39.7612892709   0.000000000000 0.07082197  0.00131219  0.0752070 0.7000
  1    -39.7750388003  -0.013749529490 0.06356803  0.00114090  0.0484254 0.7000
                               ***Turning on DIIS***
  2    -39.7828857941  -0.007846993768 0.13057898  0.00243607  0.0281272 0.0000
  3    -39.7966790593  -0.013793265214 0.04871624  0.00086552  0.0191184 0.0000
  4    -39.7981764482  -0.001497388870 0.01515156  0.00025759  0.0032145 0.0000
  5    -39.7982439308  -0.000067482616 0.01360111  0.00022082  0.0016794 0.0000
  6    -39.7982675326  -0.000023601804 0.01465974  0.00022814  0.0006339 0.0000
               *** Restarting incremental Fock matrix formation ***
                                   *** Resetting DIIS ***
  7    -39.7982735443  -0.000006011717 0.00120216  0.00001875  0.0000859 0.0000
  8    -39.7982737172  -0.000000172885 0.00082395  0.00001287  0.0000453 0.0000
  9    -39.7982737730  -0.000000055821 0.00002170  0.00000084  0.0000191 0.0000
 10    -39.7982737763  -0.000000003251 0.00001132  0.00000036  0.0000072 0.0000
                 **** Energy Check signals convergence ****

               *****************************************************
               *                     SUCCESS                       *
               *           SCF CONVERGED AFTER  11 CYCLES          *
               *****************************************************

Old exchange energy                            =     -2.172905545 Eh
New exchange energy                            =     -2.172908694 Eh
Exchange energy change after final integration =     -0.000003149 Eh
Total energy after final integration           =    -39.798276926 Eh
Final COS-X integration done in                =     0.126 sec

----------------
TOTAL SCF ENERGY
----------------

Total Energy       :          -39.79827693 Eh           -1082.96617 eV

Components:
Nuclear Repulsion  :            9.80475663 Eh             266.80099 eV
Electronic Energy  :          -49.60303355 Eh           -1349.76716 eV
One Electron Energy:          -71.82827573 Eh           -1954.54675 eV
Two Electron Energy:           22.22524218 Eh             604.77959 eV
Max COSX asymmetry :            0.00000009 Eh               0.00000 eV

Virial components:
Potential Energy   :          -79.46769135 Eh           -2162.42582 eV
Kinetic Energy     :           39.66941443 Eh            1079.45965 eV
Virial Ratio       :            2.00324841


DFT components:
N(Alpha)           :        4.999997489694 electrons
N(Beta)            :        4.000000239504 electrons
N(Total)           :        8.999997729198 electrons
E(XC)              :       -4.316679834011 Eh       
DFET-embed. en.    :        0.000000000000 Eh       

---------------
SCF CONVERGENCE
---------------

  Last Energy change         ...   -3.0435e-10  Tolerance :   1.0000e-08
  Last MAX-Density change    ...    0.0000e+00  Tolerance :   1.0000e-07
  Last RMS-Density change    ...    0.0000e+00  Tolerance :   5.0000e-09
  Last DIIS Error            ...    1.3291e-06  Tolerance :   5.0000e-07

             **** THE GBW FILE WAS UPDATED (/beegfs/scratch/ispackman/PFAS_EPR_calcs/benchmark/JChemEd_CF3_radical/CH3_radical_96.5_degrees_IN-PROGRESS/CH3_radical_96.5_degrees.gbw) ****
             **** DENSITY /beegfs/scratch/ispackman/PFAS_EPR_calcs/benchmark/JChemEd_CF3_radical/CH3_radical_96.5_degrees_IN-PROGRESS/CH3_radical_96.5_degrees.scfp WAS UPDATED ****
             **** ENERGY FILE WAS UPDATED (/beegfs/scratch/ispackman/PFAS_EPR_calcs/benchmark/JChemEd_CF3_radical/CH3_radical_96.5_degrees_IN-PROGRESS/CH3_radical_96.5_degrees.en.tmp) ****
----------------------
UHF SPIN CONTAMINATION
----------------------

Warning: in a DFT calculation there is little theoretical justification to 
         calculate <S**2> as in Hartree-Fock theory. We will do it anyways
         but you should keep in mind that the values have only limited relevance

Expectation value of <S**2>     :     0.753171
Ideal value S*(S+1) for S=0.5   :     0.750000
Deviation                       :     0.003171

             **** THE GBW FILE WAS UPDATED (/beegfs/scratch/ispackman/PFAS_EPR_calcs/benchmark/JChemEd_CF3_radical/CH3_radical_96.5_degrees_IN-PROGRESS/CH3_radical_96.5_degrees.gbw) ****
             **** DENSITY /beegfs/scratch/ispackman/PFAS_EPR_calcs/benchmark/JChemEd_CF3_radical/CH3_radical_96.5_degrees_IN-PROGRESS/CH3_radical_96.5_degrees.scfp WAS UPDATED ****
----------------
ORBITAL ENERGIES
----------------
                 SPIN UP ORBITALS
  NO   OCC          E(Eh)            E(eV) 
   0   1.0000     -10.296701      -280.1875 
   1   1.0000      -0.824918       -22.4472 
   2   1.0000      -0.489068       -13.3082 
   3   1.0000      -0.489051       -13.3078 
   4   1.0000      -0.396577       -10.7914 
   5   0.0000       0.074481         2.0267 
   6   0.0000       0.161550         4.3960 
   7   0.0000       0.161557         4.3962 
   8   0.0000       0.169852         4.6219 
   9   0.0000       0.193687         5.2705 
  10   0.0000       0.193687         5.2705 
  11   0.0000       0.239784         6.5248 
  12   0.0000       0.252991         6.8842 
  13   0.0000       0.252999         6.8844 
  14   0.0000       0.315646         8.5892 
  15   0.0000       0.349442         9.5088 
  16   0.0000       0.349447         9.5089 
  17   0.0000       0.350904         9.5486 
  18   0.0000       0.381722        10.3872 
  19   0.0000       0.382967        10.4211 
  20   0.0000       0.382972        10.4212 
  21   0.0000       0.394832        10.7439 
  22   0.0000       0.394842        10.7442 
  23   0.0000       0.529710        14.4141 
  24   0.0000       0.562847        15.3158 
  25   0.0000       0.562855        15.3161 
  26   0.0000       0.669877        18.2283 
  27   0.0000       0.784706        21.3529 
  28   0.0000       0.786932        21.4135 
  29   0.0000       0.786940        21.4137 
  30   0.0000       0.867534        23.6068 
  31   0.0000       0.867550        23.6072 
  32   0.0000       0.957730        26.0612 
  33   0.0000       1.162446        31.6318 
  34   0.0000       1.162482        31.6327 
  35   0.0000       1.647367        44.8271 
  36   0.0000       1.746681        47.5296 
  37   0.0000       1.746711        47.5304 
  38   0.0000       1.796501        48.8853 
  39   0.0000       1.836079        49.9623 
  40   0.0000       1.940076        52.7922 
  41   0.0000       1.940115        52.7932 
  42   0.0000       2.193237        59.6810 
  43   0.0000       2.193275        59.6820 
  44   0.0000       2.207463        60.0681 
  45   0.0000       2.519182        68.5504 
  46   0.0000       2.645897        71.9985 
  47   0.0000       2.646014        72.0017 
  48   0.0000       2.728911        74.2574 
  49   0.0000       2.728975        74.2592 
  50   0.0000       2.775939        75.5371 
  51   0.0000       3.124195        85.0137 
  52   0.0000       3.154299        85.8328 
  53   0.0000       3.154402        85.8356 
  54   0.0000       3.253648        88.5363 
  55   0.0000       3.315304        90.2140 
  56   0.0000       3.349091        91.1334 
  57   0.0000       3.349142        91.1348 
  58   0.0000       3.729296       101.4793 
  59   0.0000       3.729338       101.4805 
  60   0.0000       4.281235       116.4983 
  61   0.0000       4.484102       122.0186 
  62   0.0000       4.484162       122.0202 
  63   0.0000      22.178305       603.5024 

                 SPIN DOWN ORBITALS
  NO   OCC          E(Eh)            E(eV) 
   0   1.0000     -10.284829      -279.8644 
   1   1.0000      -0.790733       -21.5169 
   2   1.0000      -0.473163       -12.8754 
   3   1.0000      -0.473148       -12.8750 
   4   0.0000      -0.041728        -1.1355 
   5   0.0000       0.082611         2.2480 
   6   0.0000       0.166699         4.5361 
   7   0.0000       0.166699         4.5361 
   8   0.0000       0.201331         5.4785 
   9   0.0000       0.201332         5.4785 
  10   0.0000       0.204955         5.5771 
  11   0.0000       0.254594         6.9279 
  12   0.0000       0.256517         6.9802 
  13   0.0000       0.256520         6.9803 
  14   0.0000       0.323266         8.7965 
  15   0.0000       0.366274         9.9668 
  16   0.0000       0.366277         9.9669 
  17   0.0000       0.368084        10.0161 
  18   0.0000       0.381513        10.3815 
  19   0.0000       0.389924        10.6104 
  20   0.0000       0.389927        10.6105 
  21   0.0000       0.403062        10.9679 
  22   0.0000       0.403063        10.9679 
  23   0.0000       0.567228        15.4351 
  24   0.0000       0.567229        15.4351 
  25   0.0000       0.567863        15.4523 
  26   0.0000       0.678208        18.4550 
  27   0.0000       0.791944        21.5499 
  28   0.0000       0.799850        21.7650 
  29   0.0000       0.799864        21.7654 
  30   0.0000       0.886769        24.1302 
  31   0.0000       0.886801        24.1311 
  32   0.0000       0.974822        26.5262 
  33   0.0000       1.173785        31.9403 
  34   0.0000       1.173798        31.9407 
  35   0.0000       1.718059        46.7508 
  36   0.0000       1.756700        47.8022 
  37   0.0000       1.756706        47.8024 
  38   0.0000       1.797890        48.9231 
  39   0.0000       1.849836        50.3366 
  40   0.0000       1.955269        53.2056 
  41   0.0000       1.955278        53.2058 
  42   0.0000       2.203495        59.9602 
  43   0.0000       2.203502        59.9603 
  44   0.0000       2.211004        60.1645 
  45   0.0000       2.533947        68.9522 
  46   0.0000       2.653550        72.2068 
  47   0.0000       2.653570        72.2073 
  48   0.0000       2.754974        74.9667 
  49   0.0000       2.755003        74.9674 
  50   0.0000       2.798536        76.1520 
  51   0.0000       3.174306        86.3773 
  52   0.0000       3.200941        87.1020 
  53   0.0000       3.200990        87.1034 
  54   0.0000       3.276224        89.1506 
  55   0.0000       3.337546        90.8193 
  56   0.0000       3.386736        92.1578 
  57   0.0000       3.386754        92.1582 
  58   0.0000       3.774107       102.6987 
  59   0.0000       3.774138       102.6995 
  60   0.0000       4.304285       117.1255 
  61   0.0000       4.506831       122.6371 
  62   0.0000       4.506858       122.6378 
  63   0.0000      22.198360       604.0481 

                    ********************************
                    * MULLIKEN POPULATION ANALYSIS *
                    ********************************

--------------------------------------------
MULLIKEN ATOMIC CHARGES AND SPIN POPULATIONS
--------------------------------------------
   0 C :   -0.692546    0.889377
   1 H :    0.230582    0.036926
   2 H :    0.230982    0.036849
   3 H :    0.230982    0.036848
Sum of atomic charges         :    0.0000000
Sum of atomic spin populations:    1.0000000

-----------------------------------------------------
MULLIKEN REDUCED ORBITAL CHARGES AND SPIN POPULATIONS
-----------------------------------------------------
CHARGE
  0 C s       :     3.307061  s :     3.307061
      pz      :     0.967079  p :     3.329272
      px      :     1.181086
      py      :     1.181107
      dz2     :     0.000108  d :     0.055667
      dxz     :     0.020416
      dyz     :     0.020419
      dx2y2   :     0.007356
      dxy     :     0.007369
      f0      :     0.000259  f :     0.000546
      f+1     :     0.000047
      f-1     :     0.000046
      f+2     :    -0.000049
      f-2     :    -0.000047
      f+3     :     0.000291
      f-3     :     0.000000
  1 H s       :     0.728072  s :     0.728072
      pz      :     0.022467  p :     0.041346
      px      :     0.012833
      py      :     0.006046
  2 H s       :     0.727792  s :     0.727792
      pz      :     0.022430  p :     0.041226
      px      :     0.007708
      py      :     0.011088
  3 H s       :     0.727792  s :     0.727792
      pz      :     0.022430  p :     0.041226
      px      :     0.007708
      py      :     0.011088

SPIN
  0 C s       :     0.034680  s :     0.034680
      pz      :     0.857116  p :     0.866761
      px      :     0.004774
      py      :     0.004870
      dz2     :    -0.000287  d :    -0.011650
      dxz     :    -0.005230
      dyz     :    -0.005228
      dx2y2   :    -0.000454
      dxy     :    -0.000450
      f0      :    -0.000470  f :    -0.000414
      f+1     :     0.000092
      f-1     :     0.000092
      f+2     :    -0.000014
      f-2     :    -0.000013
      f+3     :    -0.000101
      f-3     :     0.000000
  1 H s       :     0.015749  s :     0.015749
      pz      :     0.019129  p :     0.021177
      px      :    -0.000732
      py      :     0.002781
  2 H s       :     0.015714  s :     0.015714
      pz      :     0.019092  p :     0.021134
      px      :     0.001895
      py      :     0.000148
  3 H s       :     0.015714  s :     0.015714
      pz      :     0.019092  p :     0.021134
      px      :     0.001895
      py      :     0.000148


                     *******************************
                     * LOEWDIN POPULATION ANALYSIS *
                     *******************************

-------------------------------------------
LOEWDIN ATOMIC CHARGES AND SPIN POPULATIONS
-------------------------------------------
   0 C :    0.054315    0.837354
   1 H :   -0.018125    0.054218
   2 H :   -0.018095    0.054214
   3 H :   -0.018095    0.054214

----------------------------------------------------
LOEWDIN REDUCED ORBITAL CHARGES AND SPIN POPULATIONS
----------------------------------------------------
CHARGE
  0 C s       :     2.902339  s :     2.902339
      pz      :     0.763702  p :     2.909436
      px      :     1.072866
      py      :     1.072868
      dz2     :     0.002522  d :     0.122088
      dxz     :     0.033677
      dyz     :     0.033677
      dx2y2   :     0.026104
      dxy     :     0.026108
      f0      :     0.001416  f :     0.011822
      f+1     :     0.000274
      f-1     :     0.000273
      f+2     :     0.003910
      f-2     :     0.003912
      f+3     :     0.002036
      f-3     :     0.000000
  1 H s       :     0.745075  s :     0.745075
      pz      :     0.072266  p :     0.273051
      px      :     0.121062
      py      :     0.079723
  2 H s       :     0.745060  s :     0.745060
      pz      :     0.072264  p :     0.273035
      px      :     0.090049
      py      :     0.110721
  3 H s       :     0.745060  s :     0.745060
      pz      :     0.072264  p :     0.273035
      px      :     0.090049
      py      :     0.110721

SPIN
  0 C s       :     0.129667  s :     0.129667
      pz      :     0.675599  p :     0.719046
      px      :     0.021727
      py      :     0.021720
      dz2     :     0.000996  d :    -0.011263
      dxz     :    -0.004629
      dyz     :    -0.004633
      dx2y2   :    -0.001500
      dxy     :    -0.001496
      f0      :    -0.000174  f :    -0.000096
      f+1     :     0.000109
      f-1     :     0.000109
      f+2     :    -0.000219
      f-2     :    -0.000218
      f+3     :     0.000297
      f-3     :     0.000000
  1 H s       :     0.000261  s :     0.000261
      pz      :     0.052146  p :     0.053957
      px      :     0.002894
      py      :    -0.001083
  2 H s       :     0.000257  s :     0.000257
      pz      :     0.052141  p :     0.053956
      px      :    -0.000091
      py      :     0.001906
  3 H s       :     0.000257  s :     0.000257
      pz      :     0.052141  p :     0.053956
      px      :    -0.000091
      py      :     0.001906


                      *****************************
                      * MAYER POPULATION ANALYSIS *
                      *****************************

  NA   - Mulliken gross atomic population
  ZA   - Total nuclear charge
  QA   - Mulliken gross atomic charge
  VA   - Mayer's total valence
  BVA  - Mayer's bonded valence
  FA   - Mayer's free valence

  ATOM       NA         ZA         QA         VA         BVA        FA
  0 C      6.6925     6.0000    -0.6925     3.8382     3.0724     0.7658
  1 H      0.7694     1.0000     0.2306     1.0033     1.0019     0.0015
  2 H      0.7690     1.0000     0.2310     1.0028     1.0014     0.0014
  3 H      0.7690     1.0000     0.2310     1.0028     1.0014     0.0014

  Mayer bond orders larger than 0.100000
B(  0-C ,  1-H ) :   1.0244 B(  0-C ,  2-H ) :   1.0240 B(  0-C ,  3-H ) :   1.0240 


-------
TIMINGS
-------

Total SCF time: 0 days 0 hours 0 min 8 sec 

Total time                  ....       8.040 sec
Sum of individual times     ....       7.395 sec  ( 92.0%)

Fock matrix formation       ....       6.153 sec  ( 76.5%)
  Split-RI-J                ....       0.826 sec  ( 13.4% of F)
  Chain of spheres X        ....       1.355 sec  ( 22.0% of F)
  XC integration            ....       1.268 sec  ( 20.6% of F)
    Basis function eval.    ....       0.052 sec  (  4.1% of XC)
    Density eval.           ....       0.052 sec  (  4.1% of XC)
    XC-Functional eval.     ....       0.053 sec  (  4.2% of XC)
    XC-Potential eval.      ....       0.073 sec  (  5.8% of XC)
Diagonalization             ....       0.189 sec  (  2.4%)
Density matrix formation    ....       0.007 sec  (  0.1%)
Population analysis         ....       0.150 sec  (  1.9%)
Initial guess               ....       0.089 sec  (  1.1%)
Orbital Transformation      ....       0.000 sec  (  0.0%)
Orbital Orthonormalization  ....       0.000 sec  (  0.0%)
DIIS solution               ....       0.381 sec  (  4.7%)
Grid generation             ....       0.427 sec  (  5.3%)

Maximum memory used throughout the entire SCF-calculation: 58.5 MB


-------------------------------------------------------------------------------
                          DFT DISPERSION CORRECTION                            
                                                                               
                              DFTD3 V3.1  Rev 1                                
                              USING zero damping                               
-------------------------------------------------------------------------------
The omegaB97X-D3 functional is recognized. Fit by Chai et al.
Active option DFTDOPT                   ...         3   

molecular C6(AA) [au] = 106.956203 


            DFT-D V3
 parameters
 s6 scaling factor         :     1.0000 
 rs6 scaling factor        :     1.2810 
 s8 scaling factor         :     1.0000 
 rs8 scaling factor        :     1.0940 
 Damping factor alpha6     :    14.0000 
 Damping factor alpha8     :    16.0000 
 ad hoc parameters k1-k3   :    16.0000     1.3333    -4.0000 

 Edisp/kcal,au: -0.003584829129  -0.000005712788 
 E6   /kcal   :  -0.000556974 
 E8   /kcal   :  -0.003027856 
 % E8         :  84.463038573 

-------------------------   ----------------
Dispersion correction           -0.000005713
-------------------------   ----------------


-------------------------   --------------------
FINAL SINGLE POINT ENERGY       -39.798282638341
-------------------------   --------------------



           ************************************************************
           *        Program running with 18 parallel MPI-processes    *
           *              working on a common directory               *
           ************************************************************
------------------------------------------------------------------------------
                         ORCA SCF GRADIENT CALCULATION
------------------------------------------------------------------------------

 ... reading COSX grid (gridx3)
Gradient of the Kohn-Sham DFT energy:
Kohn-Sham wavefunction type      ... UKS
Hartree-Fock exchange scaling    ...    0.196
Number of operators              ...    2
Number of atoms                  ...    4
Basis set dimensions             ...   64
Integral neglect threshold       ... 2.5e-11
Integral primitive cutoff        ... 2.5e-12
SHARK Integral package           ... ON

Nuc. rep. gradient       (SHARK) ... done (  0.0 sec)
HCore & Overlap gradient (SHARK) ... done (  0.0 sec)
RI-J gradient            (SHARK) ... done (  0.1 sec)
COSX-gradient                    ... done (  0.1 sec)
Exchange-correlation gradient    ... done
Dispersion correction            ... done

------------------
CARTESIAN GRADIENT
------------------

WARNING: THERE ARE 3 CONSTRAINED CARTESIAN COORDINATES
   1   C   :   -0.000084801   -0.000000028    0.074616774
   2   H   :   -0.030704686    0.000000000   -0.024878936
   3   H   :    0.015371938   -0.026540543   -0.024849015
   4   H   :    0.015371925    0.026540535   -0.024849027

Difference to translation invariance:
           :   -0.0000456232   -0.0000000356    0.0000397962

Difference to rotation invariance:
           :    0.0000000105    0.0000119918   -0.0000000126

Norm of the cartesian gradient     ...    0.1012212926
RMS gradient                       ...    0.0292200703
MAX gradient                       ...    0.0746167743

-------
TIMINGS
-------

Total SCF gradient time            ...        0.583 sec

One electron gradient       ....       0.006 sec  (  1.1%)
RI-J Coulomb gradient       ....       0.130 sec  ( 22.4%)
COSX gradient               ....       0.113 sec  ( 19.4%)
XC gradient                 ....       0.063 sec  ( 10.8%)

Maximum memory used throughout the entire SCFGRAD-calculation: 33.6 MB
------------------------------------------------------------------------------
                         ORCA GEOMETRY RELAXATION STEP
------------------------------------------------------------------------------

Reading the OPT-File                    .... done
Getting information on internals        .... done
Copying old internal coords+grads       .... done
Making the new internal coordinates     .... (new redundants).... done
Validating the new internal coordinates .... (new redundants).... done
Calculating the B-matrix                .... done
Calculating the G,G- and P matrices     .... done
Transforming gradient to internals      .... done
Projecting the internal gradient        .... done
Number of atoms                         ....   4
Number of internal coordinates          ....   7
Current Energy                          ....   -39.798282638 Eh
Current gradient norm                   ....     0.101221293 Eh/bohr
Maximum allowed component of the step   ....  0.300
Current trust radius                    ....  0.300
Evaluating the initial hessian          ....  (Almloef) done
Projecting the Hessian                  .... done
Forming the augmented Hessian           .... done
Diagonalizing the augmented Hessian     .... done
Last element of RFO vector              ....  0.997974927
Lowest eigenvalues of augmented Hessian:
 -0.001523831  0.373574723  0.373574723  0.375098554 1000.000000000
Length of the computed step             ....  0.063737605
The final length of the internal step   ....  0.063737605
Converting the step to cartesian space:
 Initial RMS(Int)=    0.0240905503
Transforming coordinates:
 Iter   0:  RMS(Cart)=    0.0165247409 RMS(Int)=    0.0240905503
 Iter   1:  RMS(Cart)=    0.0000000000 RMS(Int)=    0.0000000000
Imposing constraints:
 Iter   0:  RMS(Cart)=    0.0000000006 RMS(Int)=    0.0000000009
CONVERGED
done
Storing new coordinates                 .... done

                                .--------------------.
          ----------------------|Geometry convergence|-------------------------
          Item                value                   Tolerance       Converged
          ---------------------------------------------------------------------
          RMS gradient        0.0090363306            0.0001000000      NO
          MAX gradient        0.0138048991            0.0003000000      NO
          RMS step            0.0240905503            0.0020000000      NO
          MAX step            0.0368033919            0.0040000000      NO
          ........................................................
          Max(Bonds)      0.0195      Max(Angles)    0.00
          Max(Dihed)        0.00      Max(Improp)    0.00
          ---------------------------------------------------------------------

The optimization has not yet converged - more geometry cycles are needed


    ---------------------------------------------------------------------------
                         Redundant Internal Coordinates
                            (Angstroem and degrees)

        Definition                    Value    dE/dq     Step     New-Value
    ----------------------------------------------------------------------------
     1. B(H   1,C   0)                1.0800 -0.013800  0.0195    1.0995   
     2. B(H   2,C   0)                1.0800 -0.013805  0.0195    1.0995   
     3. B(H   3,C   0)                1.0800 -0.013805  0.0195    1.0995   
     4. A(H   2,C   0,H   3)           96.50 -0.052952   -0.00     96.50 C 
     5. A(H   1,C   0,H   2)           96.50 -0.024856   -0.00     96.50 C 
     6. A(H   1,C   0,H   3)           96.50 -0.024856    0.00     96.50 C 
     7. I(H   1,H   3,H   2,C   0)     80.21  0.042753    0.00     80.21   
    ----------------------------------------------------------------------------

         *************************************************************
         *                GEOMETRY OPTIMIZATION CYCLE   2            *
         *************************************************************
---------------------------------
CARTESIAN COORDINATES (ANGSTROEM)
---------------------------------
  C      0.000002    0.000000    0.007416
  H      0.947164    0.000000   -0.550899
  H     -0.473583    0.820272   -0.550900
  H     -0.473583   -0.820272   -0.550900

----------------------------
CARTESIAN COORDINATES (A.U.)
----------------------------
  NO LB      ZA    FRAG     MASS         X           Y           Z
   0 C     6.0000    0    12.011    0.000004    0.000000    0.014015
   1 H     1.0000    0     1.008    1.789880    0.000000   -1.041049
   2 H     1.0000    0     1.008   -0.894942    1.550089   -1.041051
   3 H     1.0000    0     1.008   -0.894942   -1.550089   -1.041051

--------------------------------
INTERNAL COORDINATES (ANGSTROEM)
--------------------------------
 C      0   0   0     0.000000000000     0.00000000     0.00000000
 H      1   0   0     1.099468426419     0.00000000     0.00000000
 H      1   2   0     1.099475511419    96.50000004     0.00000000
 H      1   2   3     1.099475516207    96.50000004    97.33405070

---------------------------
INTERNAL COORDINATES (A.U.)
---------------------------
 C      0   0   0     0.000000000000     0.00000000     0.00000000
 H      1   0   0     2.077694218825     0.00000000     0.00000000
 H      1   2   0     2.077707607536    96.50000004     0.00000000
 H      1   2   3     2.077707616584    96.50000004    97.33405070



           ************************************************************
           *        Program running with 18 parallel MPI-processes    *
           *              working on a common directory               *
           ************************************************************
------------------------------------------------------------------------------
                   ___                                                        
                  /   \      - P O W E R E D   B Y -                         
                 /     \                                                     
                 |  |  |   _    _      __       _____    __    __             
                 |  |  |  | |  | |    /  \     |  _  \  |  |  /  |          
                  \  \/   | |  | |   /    \    | | | |  |  | /  /          
                 / \  \   | |__| |  /  /\  \   | |_| |  |  |/  /          
                |  |  |   |  __  | /  /__\  \  |    /   |      \           
                |  |  |   | |  | | |   __   |  |    \   |  |\   \          
                \     /   | |  | | |  |  |  |  | |\  \  |  | \   \       
                 \___/    |_|  |_| |__|  |__|  |_| \__\ |__|  \__/        
                                                                              
                      - O R C A' S   B I G   F R I E N D -                    
                                      &                                       
                       - I N T E G R A L  F E E D E R -                       
                                                                              
 v1 FN, 2020, v2 2021                                                         
------------------------------------------------------------------------------


Reading SHARK input file /beegfs/scratch/ispackman/PFAS_EPR_calcs/benchmark/JChemEd_CF3_radical/CH3_radical_96.5_degrees_IN-PROGRESS/CH3_radical_96.5_degrees.SHARKINP.tmp ... ok
----------------------
SHARK INTEGRAL PACKAGE
----------------------

Number of atoms                             ...      4
Number of basis functions                   ...     64
Number of shells                            ...     28
Maximum angular momentum                    ...      3
Integral batch strategy                     ... SHARK/LIBINT Hybrid
RI-J (if used) integral strategy            ... SPLIT-RIJ (Revised 2003 algorithm where possible)
Printlevel                                  ...      1
Contraction scheme used                     ... SEGMENTED contraction
Coulomb Range Separation                    ... NOT USED
Exchange Range Separation                   ... Long Range
   Mu parameter                             ...  0.250000
   Scaling (regular/separated)              ...  0.195728  0.804272
Finite Nucleus Model                        ... NOT USED
Auxiliary Coulomb fitting basis             ... AVAILABLE
   # of basis functions in Aux-J            ...     82
   # of shells in Aux-J                     ...     30
   Maximum angular momentum in Aux-J        ...      4
Auxiliary J/K fitting basis                 ... NOT available
Auxiliary Correlation fitting basis         ... NOT available
Auxiliary 'external' fitting basis          ... NOT available
Integral threshold                          ...     2.500000e-11
Primitive cut-off                           ...     2.500000e-12
Primitive pair pre-selection threshold      ...     2.500000e-12

Calculating pre-screening integrals         ... done (  0.0 sec) Dimension = 28
Organizing shell pair data                  ... done (  0.0 sec)
Shell pair information
Total number of shell pairs                 ...       406
Shell pairs after pre-screening             ...       406
Total number of primitive shell pairs       ...       977
Primitive shell pairs kept                  ...       947
          la=0 lb=0:    120 shell pairs
          la=1 lb=0:    135 shell pairs
          la=1 lb=1:     45 shell pairs
          la=2 lb=0:     45 shell pairs
          la=2 lb=1:     27 shell pairs
          la=2 lb=2:      6 shell pairs
          la=3 lb=0:     15 shell pairs
          la=3 lb=1:      9 shell pairs
          la=3 lb=2:      3 shell pairs
          la=3 lb=3:      1 shell pairs

Calculating one electron integrals          ... done (  0.0 sec)
Calculating RI/J V-Matrix + Cholesky decomp.... done (  0.1 sec)
Calculating Nuclear repulsion               ... done (  0.0 sec) ENN=      9.631101174891 Eh

SHARK setup successfully completed in   0.3 seconds

Maximum memory used throughout the entire GTOINT-calculation: 14.0 MB


           ************************************************************
           *        Program running with 18 parallel MPI-processes    *
           *              working on a common directory               *
           ************************************************************

Diagonalization of the overlap matrix:
Smallest eigenvalue                        ... 4.078e-05
Time for diagonalization                   ...    0.002 sec
Threshold for overlap eigenvalues          ... 1.000e-08
Number of eigenvalues below threshold      ... 0
Time for construction of square roots      ...    0.014 sec
Total time needed                          ...    0.017 sec

-------------------
DFT GRID GENERATION
-------------------

General Integration Accuracy     IntAcc      ... 4.388
Radial Grid Type                 RadialGrid  ... OptM3 with GC (2021)
Angular Grid (max. ang.)         AngularGrid ... 4 (Lebedev-302)
Angular grid pruning method      GridPruning ... 4 (adaptive)
Weight generation scheme         WeightScheme... Becke
Basis function cutoff            BFCut       ... 1.0000e-11
Integration weight cutoff        WCut        ... 1.0000e-14
Angular grids for H and He will be reduced by one unit
Partially contracted basis set               ... off
Rotationally invariant grid construction     ... off

Total number of grid points                  ...    17037
Total number of batches                      ...      268
Average number of points per batch           ...       63
Average number of grid points per atom       ...     4259
Time for grid setup =    0.116 sec

--------------------
COSX GRID GENERATION
--------------------

GRIDX 1
-------
General Integration Accuracy     IntAcc      ... 3.816
Radial Grid Type                 RadialGrid  ... OptM3 with GC (2021)
Angular Grid (max. ang.)         AngularGrid ... 1 (Lebedev-50)
Angular grid pruning method      GridPruning ... 4 (adaptive)
Weight generation scheme         WeightScheme... Becke
Basis function cutoff            BFCut       ... 1.0000e-11
Integration weight cutoff        WCut        ... 1.0000e-14
Angular grids for H and He will be reduced by one unit
Partially contracted basis set               ... on
Rotationally invariant grid construction     ... off

Total number of grid points                  ...     2144
Total number of batches                      ...       36
Average number of points per batch           ...       59
Average number of grid points per atom       ...      536
UseSFitting                                  ... on

GRIDX 2
-------
General Integration Accuracy     IntAcc      ... 4.020
Radial Grid Type                 RadialGrid  ... OptM3 with GC (2021)
Angular Grid (max. ang.)         AngularGrid ... 2 (Lebedev-110)
Angular grid pruning method      GridPruning ... 4 (adaptive)
Weight generation scheme         WeightScheme... Becke
Basis function cutoff            BFCut       ... 1.0000e-11
Integration weight cutoff        WCut        ... 1.0000e-14
Angular grids for H and He will be reduced by one unit
Partially contracted basis set               ... on
Rotationally invariant grid construction     ... off

Total number of grid points                  ...     5060
Total number of batches                      ...       81
Average number of points per batch           ...       62
Average number of grid points per atom       ...     1265
UseSFitting                                  ... on

GRIDX 3
-------
General Integration Accuracy     IntAcc      ... 4.338
Radial Grid Type                 RadialGrid  ... OptM3 with GC (2021)
Angular Grid (max. ang.)         AngularGrid ... 3 (Lebedev-194)
Angular grid pruning method      GridPruning ... 4 (adaptive)
Weight generation scheme         WeightScheme... Becke
Basis function cutoff            BFCut       ... 1.0000e-11
Integration weight cutoff        WCut        ... 1.0000e-14
Angular grids for H and He will be reduced by one unit
Partially contracted basis set               ... on
Rotationally invariant grid construction     ... off

Total number of grid points                  ...    11718
Total number of batches                      ...      186
Average number of points per batch           ...       63
Average number of grid points per atom       ...     2930
UseSFitting                                  ... on

Time for X-Grid setup             =    0.236 sec

--------------
SCF ITERATIONS
--------------
ITER       Energy         Delta-E        Max-DP      RMS-DP      [F,P]     Damp
               ***  Starting incremental Fock matrix formation  ***
  0    -39.7988351954   0.000000000000 0.01885500  0.00030883  0.0059552 0.7000
  1    -39.7989061619  -0.000070966436 0.01635303  0.00026869  0.0043425 0.7000
                               ***Turning on DIIS***
  2    -39.7989536844  -0.000047522484 0.04189300  0.00068969  0.0031524 0.0000
  3    -39.7990581793  -0.000104494970 0.00704049  0.00012063  0.0007973 0.0000
               *** Restarting incremental Fock matrix formation ***
                                   *** Resetting DIIS ***
  4    -39.7990631402  -0.000004960917 0.00106925  0.00002512  0.0003848 0.0000
  5    -39.7990639520  -0.000000811804 0.00051908  0.00001028  0.0002237 0.0000
  6    -39.7990643050  -0.000000352936 0.00026937  0.00000611  0.0000484 0.0000
  7    -39.7990643324  -0.000000027425 0.00009679  0.00000188  0.0000111 0.0000
                 **** Energy Check signals convergence ****

               *****************************************************
               *                     SUCCESS                       *
               *           SCF CONVERGED AFTER   8 CYCLES          *
               *****************************************************

Old exchange energy                            =     -2.167655300 Eh
New exchange energy                            =     -2.167658708 Eh
Exchange energy change after final integration =     -0.000003408 Eh
Total energy after final integration           =    -39.799067742 Eh
Final COS-X integration done in                =     0.130 sec
Total Energy       :          -39.79906774 Eh           -1082.98769 eV
  Last Energy change         ...   -1.2097e-09  Tolerance :   1.0000e-08
  Last MAX-Density change    ...    0.0000e+00  Tolerance :   1.0000e-07
             **** THE GBW FILE WAS UPDATED (/beegfs/scratch/ispackman/PFAS_EPR_calcs/benchmark/JChemEd_CF3_radical/CH3_radical_96.5_degrees_IN-PROGRESS/CH3_radical_96.5_degrees.gbw) ****
             **** DENSITY /beegfs/scratch/ispackman/PFAS_EPR_calcs/benchmark/JChemEd_CF3_radical/CH3_radical_96.5_degrees_IN-PROGRESS/CH3_radical_96.5_degrees.scfp WAS UPDATED ****
             **** ENERGY FILE WAS UPDATED (/beegfs/scratch/ispackman/PFAS_EPR_calcs/benchmark/JChemEd_CF3_radical/CH3_radical_96.5_degrees_IN-PROGRESS/CH3_radical_96.5_degrees.en.tmp) ****
----------------------
UHF SPIN CONTAMINATION
----------------------

Warning: in a DFT calculation there is little theoretical justification to 
         calculate <S**2> as in Hartree-Fock theory. We will do it anyways
         but you should keep in mind that the values have only limited relevance

Expectation value of <S**2>     :     0.753290
Ideal value S*(S+1) for S=0.5   :     0.750000
Deviation                       :     0.003290

             **** THE GBW FILE WAS UPDATED (/beegfs/scratch/ispackman/PFAS_EPR_calcs/benchmark/JChemEd_CF3_radical/CH3_radical_96.5_degrees_IN-PROGRESS/CH3_radical_96.5_degrees.gbw) ****
             **** DENSITY /beegfs/scratch/ispackman/PFAS_EPR_calcs/benchmark/JChemEd_CF3_radical/CH3_radical_96.5_degrees_IN-PROGRESS/CH3_radical_96.5_degrees.scfp WAS UPDATED ****
Total SCF time: 0 days 0 hours 0 min 6 sec 

Maximum memory used throughout the entire SCF-calculation: 58.5 MB


-------------------------------------------------------------------------------
                          DFT DISPERSION CORRECTION                            
                                                                               
                              DFTD3 V3.1  Rev 1                                
                              USING zero damping                               
-------------------------------------------------------------------------------
-------------------------   ----------------
Dispersion correction           -0.000006593
-------------------------   ----------------


-------------------------   --------------------
FINAL SINGLE POINT ENERGY       -39.799074335136
-------------------------   --------------------



           ************************************************************
           *        Program running with 18 parallel MPI-processes    *
           *              working on a common directory               *
           ************************************************************
------------------------------------------------------------------------------
                         ORCA SCF GRADIENT CALCULATION
------------------------------------------------------------------------------

 ... reading COSX grid (gridx3)
Gradient of the Kohn-Sham DFT energy:
Kohn-Sham wavefunction type      ... UKS
Hartree-Fock exchange scaling    ...    0.196
Number of operators              ...    2
Number of atoms                  ...    4
Basis set dimensions             ...   64
Integral neglect threshold       ... 2.5e-11
Integral primitive cutoff        ... 2.5e-12
SHARK Integral package           ... ON

Nuc. rep. gradient       (SHARK) ... done (  0.0 sec)
HCore & Overlap gradient (SHARK) ... done (  0.0 sec)
RI-J gradient            (SHARK) ... done (  0.1 sec)
COSX-gradient                    ... done (  0.1 sec)
Exchange-correlation gradient    ... done
Dispersion correction            ... done

------------------
CARTESIAN GRADIENT
------------------

WARNING: THERE ARE 3 CONSTRAINED CARTESIAN COORDINATES
   1   C   :   -0.000097103   -0.000000015    0.090773948
   2   H   :   -0.018730553   -0.000000015   -0.030263638
   3   H   :    0.009389599   -0.016175894   -0.030238026
   4   H   :    0.009389577    0.016175912   -0.030238045

Difference to translation invariance:
           :   -0.0000484799   -0.0000000113    0.0000342383

Difference to rotation invariance:
           :    0.0000000332   -0.0000067044   -0.0000000788

Norm of the cartesian gradient     ...    0.1097039942
RMS gradient                       ...    0.0316688153
MAX gradient                       ...    0.0907739475

-------
TIMINGS
-------

Total SCF gradient time            ...        0.600 sec

One electron gradient       ....       0.007 sec  (  1.1%)
RI-J Coulomb gradient       ....       0.113 sec  ( 18.8%)
COSX gradient               ....       0.119 sec  ( 19.8%)
XC gradient                 ....       0.060 sec  ( 10.0%)

Maximum memory used throughout the entire SCFGRAD-calculation: 33.6 MB
------------------------------------------------------------------------------
                         ORCA GEOMETRY RELAXATION STEP
------------------------------------------------------------------------------

Reading the OPT-File                    .... done
Getting information on internals        .... done
Copying old internal coords+grads       .... done
Making the new internal coordinates     .... (new redundants).... done
Validating the new internal coordinates .... (new redundants).... done
Calculating the B-matrix                .... done
Calculating the G,G- and P matrices     .... done
Transforming gradient to internals      .... done
Projecting the internal gradient        .... done
Number of atoms                         ....   4
Number of internal coordinates          ....   7
Current Energy                          ....   -39.799074335 Eh
Current gradient norm                   ....     0.109703994 Eh/bohr
Maximum allowed component of the step   ....  0.300
Current trust radius                    ....  0.300
Updating the Hessian (BFGS)             .... done
Forming the augmented Hessian           .... done
Diagonalizing the augmented Hessian     .... done
Last element of RFO vector              ....  0.999993167
Lowest eigenvalues of augmented Hessian:
 -0.000004845  0.354539229  0.373574723  0.373576317 999.999999996
Length of the computed step             ....  0.003696796
The final length of the internal step   ....  0.003696796
Converting the step to cartesian space:
 Initial RMS(Int)=    0.0013972576
Transforming coordinates:
 Iter   0:  RMS(Cart)=    0.0009584300 RMS(Int)=    0.0013972576
 Iter   1:  RMS(Cart)=    0.0000000000 RMS(Int)=    0.0000000000
Imposing constraints:
 Iter   0:  RMS(Cart)=    0.0000000002 RMS(Int)=    0.0000000005
CONVERGED
done
Storing new coordinates                 .... done

                                .--------------------.
          ----------------------|Geometry convergence|-------------------------
          Item                value                   Tolerance       Converged
          ---------------------------------------------------------------------
          Energy change      -0.0007916968            0.0000050000      NO
          RMS gradient        0.0004953826            0.0001000000      NO
          MAX gradient        0.0007611939            0.0003000000      NO
          RMS step            0.0013972576            0.0020000000      YES
          MAX step            0.0021470449            0.0040000000      YES
          ........................................................
          Max(Bonds)      0.0011      Max(Angles)    0.00
          Max(Dihed)        0.00      Max(Improp)    0.00
          ---------------------------------------------------------------------

The optimization has not yet converged - more geometry cycles are needed


    ---------------------------------------------------------------------------
                         Redundant Internal Coordinates
                            (Angstroem and degrees)

        Definition                    Value    dE/dq     Step     New-Value
    ----------------------------------------------------------------------------
     1. B(H   1,C   0)                1.0995 -0.000748  0.0011    1.1006   
     2. B(H   2,C   0)                1.0995 -0.000761  0.0011    1.1006   
     3. B(H   3,C   0)                1.0995 -0.000761  0.0011    1.1006   
     4. A(H   2,C   0,H   3)           96.50 -0.051805    0.00     96.50 C 
     5. A(H   1,C   0,H   2)           96.50 -0.024322    0.00     96.50 C 
     6. A(H   1,C   0,H   3)           96.50 -0.024322    0.00     96.50 C 
     7. I(H   1,H   3,H   2,C   0)     80.21  0.041834   -0.00     80.21   
    ----------------------------------------------------------------------------

         *************************************************************
         *                GEOMETRY OPTIMIZATION CYCLE   3            *
         *************************************************************
---------------------------------
CARTESIAN COORDINATES (ANGSTROEM)
---------------------------------
  C      0.000009    0.000000    0.007847
  H      0.948129    0.000000   -0.551040
  H     -0.474069    0.821119   -0.551045
  H     -0.474069   -0.821119   -0.551045

----------------------------
CARTESIAN COORDINATES (A.U.)
----------------------------
  NO LB      ZA    FRAG     MASS         X           Y           Z
   0 C     6.0000    0    12.011    0.000016    0.000000    0.014828
   1 H     1.0000    0     1.008    1.791703    0.000000   -1.041315
   2 H     1.0000    0     1.008   -0.895860    1.551691   -1.041324
   3 H     1.0000    0     1.008   -0.895860   -1.551691   -1.041324

--------------------------------
INTERNAL COORDINATES (ANGSTROEM)
--------------------------------
 C      0   0   0     0.000000000000     0.00000000     0.00000000
 H      1   0   0     1.100584323977     0.00000000     0.00000000
 H      1   2   0     1.100611667497    96.50000007     0.00000000
 H      1   2   3     1.100611683435    96.50000007    97.33405072

---------------------------
INTERNAL COORDINATES (A.U.)
---------------------------
 C      0   0   0     0.000000000000     0.00000000     0.00000000
 H      1   0   0     2.079802959604     0.00000000     0.00000000
 H      1   2   0     2.079854631367    96.50000007     0.00000000
 H      1   2   3     2.079854661486    96.50000007    97.33405072



           ************************************************************
           *        Program running with 18 parallel MPI-processes    *
           *              working on a common directory               *
           ************************************************************
------------------------------------------------------------------------------
                   ___                                                        
                  /   \      - P O W E R E D   B Y -                         
                 /     \                                                     
                 |  |  |   _    _      __       _____    __    __             
                 |  |  |  | |  | |    /  \     |  _  \  |  |  /  |          
                  \  \/   | |  | |   /    \    | | | |  |  | /  /          
                 / \  \   | |__| |  /  /\  \   | |_| |  |  |/  /          
                |  |  |   |  __  | /  /__\  \  |    /   |      \           
                |  |  |   | |  | | |   __   |  |    \   |  |\   \          
                \     /   | |  | | |  |  |  |  | |\  \  |  | \   \       
[...]
  ZA   - Total nuclear charge
  QA   - Mulliken gross atomic charge
  VA   - Mayer's total valence
  BVA  - Mayer's bonded valence
  FA   - Mayer's free valence

  ATOM       NA         ZA         QA         VA         BVA        FA
  0 C      6.6580     6.0000    -0.6580     3.8498     3.0674     0.7824
  1 H      0.7810     1.0000     0.2190     1.0119     1.0108     0.0011
  2 H      0.7805     1.0000     0.2195     1.0113     1.0101     0.0011
  3 H      0.7805     1.0000     0.2195     1.0113     1.0101     0.0011

  Mayer bond orders larger than 0.100000
B(  0-C ,  1-H ) :   1.0228 B(  0-C ,  2-H ) :   1.0223 B(  0-C ,  3-H ) :   1.0223 


-------
TIMINGS
-------

Total SCF time: 0 days 0 hours 0 min 4 sec 

Total time                  ....       4.643 sec
Sum of individual times     ....       4.023 sec  ( 86.7%)

Fock matrix formation       ....       3.224 sec  ( 69.4%)
  Split-RI-J                ....       0.551 sec  ( 17.1% of F)
  Chain of spheres X        ....       0.800 sec  ( 24.8% of F)
  XC integration            ....       0.553 sec  ( 17.2% of F)
    Basis function eval.    ....       0.027 sec  (  4.8% of XC)
    Density eval.           ....       0.026 sec  (  4.7% of XC)
    XC-Functional eval.     ....       0.028 sec  (  5.0% of XC)
    XC-Potential eval.      ....       0.033 sec  (  6.0% of XC)
Diagonalization             ....       0.078 sec  (  1.7%)
Density matrix formation    ....       0.008 sec  (  0.2%)
Population analysis         ....       0.162 sec  (  3.5%)
Initial guess               ....       0.007 sec  (  0.1%)
Orbital Transformation      ....       0.000 sec  (  0.0%)
Orbital Orthonormalization  ....       0.002 sec  (  0.0%)
DIIS solution               ....       0.104 sec  (  2.2%)
Grid generation             ....       0.440 sec  (  9.5%)

Maximum memory used throughout the entire SCF-calculation: 58.5 MB


-------------------------------------------------------------------------------
                          DFT DISPERSION CORRECTION                            
                                                                               
                              DFTD3 V3.1  Rev 1                                
                              USING zero damping                               
-------------------------------------------------------------------------------
The omegaB97X-D3 functional is recognized. Fit by Chai et al.
Active option DFTDOPT                   ...         3   

molecular C6(AA) [au] = 107.010894 


            DFT-D V3
 parameters
 s6 scaling factor         :     1.0000 
 rs6 scaling factor        :     1.2810 
 s8 scaling factor         :     1.0000 
 rs8 scaling factor        :     1.0940 
 Damping factor alpha6     :    14.0000 
 Damping factor alpha8     :    16.0000 
 ad hoc parameters k1-k3   :    16.0000     1.3333    -4.0000 

 Edisp/kcal,au: -0.004173433399  -0.000006650789 
 E6   /kcal   :  -0.000648471 
 E8   /kcal   :  -0.003524963 
 % E8         :  84.461934130 

-------------------------   ----------------
Dispersion correction           -0.000006651
-------------------------   ----------------


-------------------------   --------------------
FINAL SINGLE POINT ENERGY       -39.799076957609
-------------------------   --------------------

                                *** OPTIMIZATION RUN DONE ***

                            ***************************************
                            *     ORCA property calculations      *
                            ***************************************

                                    ---------------------
                                    Active property flags
                                    ---------------------
   (+) Dipole Moment


------------------------------------------------------------------------------
                       ORCA ELECTRIC PROPERTIES CALCULATION
------------------------------------------------------------------------------

Dipole Moment Calculation                       ... on
Quadrupole Moment Calculation                   ... off
Polarizability Calculation                      ... off
GBWName                                         ... /beegfs/scratch/ispackman/PFAS_EPR_calcs/benchmark/JChemEd_CF3_radical/CH3_radical_96.5_degrees_IN-PROGRESS/CH3_radical_96.5_degrees.gbw
Electron density                                ... /beegfs/scratch/ispackman/PFAS_EPR_calcs/benchmark/JChemEd_CF3_radical/CH3_radical_96.5_degrees_IN-PROGRESS/CH3_radical_96.5_degrees.scfp
The origin for moment calculation is the CENTER OF MASS  = ( 0.000013,  0.000000 -0.197561)

-------------
DIPOLE MOMENT
-------------
                                X             Y             Z
Electronic contribution:      0.00012      -0.00000       0.94123
Nuclear contribution   :     -0.00003      -0.00000      -1.25671
                        -----------------------------------------
Total Dipole Moment    :      0.00010      -0.00000      -0.31548
                        -----------------------------------------
Magnitude (a.u.)       :      0.31548
Magnitude (Debye)      :      0.80188



--------------------
Rotational spectrum 
--------------------
 
Rotational constants in cm-1:     7.974068     7.973881     6.200383 
Rotational constants in MHz : 239056.557058 239050.941079 185882.797725 

 Dipole components along the rotational axes: 
x,y,z [a.u.] :     0.000000     0.000084    -0.315476 
x,y,z [Debye]:     0.000000     0.000213    -0.801876 

 


           ************************************************************
           *        Program running with 18 parallel MPI-processes    *
           *              working on a common directory               *
           ************************************************************

-------------------------------------------------------------------------------
                               ORCA SCF HESSIAN
-------------------------------------------------------------------------------

                   --------- SHARK INITIALIZATION DONE ---------

Hessian of the Kohn-Sham DFT energy:
Kohn-Sham wavefunction type                      ... UKS
Hartree-Fock exchange scaling                    ...    0.196
Number of operators                              ...    2
Number of atoms                                  ...    4
Basis set dimensions                             ...   64
Integral neglect threshold                       ... 2.5e-11
Integral primitive cutoff                        ... 2.5e-12

Setting up DFT Hessian calculations              ... 

HESS GRID
---------

General Integration Accuracy     IntAcc      ... 4.629
Radial Grid Type                 RadialGrid  ... OptM3 with GC (2021)
Angular Grid (max. ang.)         AngularGrid ... 5 (Lebedev-434)
Angular grid pruning method      GridPruning ... 4 (adaptive)
Weight generation scheme         WeightScheme... Becke
Basis function cutoff            BFCut       ... 1.0000e-11
Integration weight cutoff        WCut        ... 1.0000e-14
Angular grids for H and He will be reduced by one unit
Partially contracted basis set               ... off
Rotationally invariant grid construction     ... off

Total number of grid points                  ...    27266
Total number of batches                      ...      427
Average number of points per batch           ...       63
Average number of grid points per atom       ...     6816

Building densities                               ... done   (      0.0 sec)
Calculating rho(r) on the grid                   ... done   (      0.1 sec)
Building xc-kernel on the grid                   ... done   (      0.1 sec)
                                                     done   (      0.4 sec)

Nuclear repulsion Hessian  (SHARK)               ... done   (      0.0 sec)

----------------------------------------------
Forming right-hand sides of CP-SCF equations     ...
----------------------------------------------
One electron integral derivatives  (SHARK)       ... done   (      0.0 sec)
Transforming the overlap derivative matrices     ... done   (      0.0 sec)
Making the Q(x) pseudodensities                  ... done   (      0.0 sec)
Adding the E*S(x)*S(y) terms to the Hessian      ... done   (      0.0 sec)
Calculating energy weighted overlap derivatives  ... done   (      0.0 sec)
Two electron integral derivatives (SHARK-RI)     ... done   (      0.5 sec)
Exchange-correlation integral derivatives        ... done   (      0.4 sec)
tr(F(y)Q(x)) contribution to the Hessian         ... done   (      0.0 sec)
Response fock operator R(S(x)) (SHARK-RIJCOSX)   ... done   (      0.6 sec)
XC Response fock operator R(S(x))                ... done   (      0.1 sec)
tr(F(y)S(x)) contribution to the Hessian         ... done   (      0.0 sec)
Transforming and finalizing RHSs                 ... done   (      0.0 sec)

----------------------------------------------
Solving the CP-SCF equations (RIJCOSX)           ...
----------------------------------------------
     CP-SCF ITERATION   0:   1.3600e-01 (   0.3 sec   0/ 12 done)
     CP-SCF ITERATION   1:   3.1738e-02 (   0.3 sec   0/ 12 done)
     CP-SCF ITERATION   2:   1.2307e-02 (   0.3 sec   0/ 12 done)
     CP-SCF ITERATION   3:   4.1678e-03 (   0.3 sec   0/ 12 done)
     CP-SCF ITERATION   4:   6.5680e-04 (   0.3 sec   1/ 12 done)
     CP-SCF ITERATION   5:   1.5245e-04 (   0.3 sec   5/ 12 done)
     CP-SCF ITERATION   6:   3.4017e-05 (   0.3 sec  12/ 12 done)
                    *** THE CP-SCF HAS CONVERGED ***

                                                 ... done   (      2.2 sec)
Forming perturbed density Hessian contributions  ... done   (      0.0 sec)
2nd integral derivative contribs (SHARK-RI)      ... done   (      0.8 sec)
Exchange-correlation Hessian                     ... done   (      0.3 sec)
Dispersion correction in the Hessian             ... done   (      0.1 sec)
Dipole derivatives                               ... (center of mass:  0.000013,  0.000000 -0.197561)done   (      0.1 sec)

Total SCF Hessian time: 0 days 0 hours 0 min 6 sec 

Writing the Hessian file to the disk             ... done


Maximum memory used throughout the entire SCFHESS-calculation: 109.4 MB

-----------------------
VIBRATIONAL FREQUENCIES
-----------------------

Scaling factor for frequencies =  1.000000000  (already applied!)

   0:         0.00 cm**-1
   1:         0.00 cm**-1
   2:         0.00 cm**-1
   3:         0.00 cm**-1
   4:         0.00 cm**-1
   5:         0.00 cm**-1
   6:      1362.30 cm**-1
   7:      1377.57 cm**-1
   8:      1378.76 cm**-1
   9:      3037.29 cm**-1
  10:      3048.61 cm**-1
  11:      3048.79 cm**-1


------------
NORMAL MODES
------------

These modes are the Cartesian displacements weighted by the diagonal matrix
M(i,i)=1/sqrt(m[i]) where m[i] is the mass of the displaced atom
Thus, these vectors are normalized but *not* orthogonal

                  0          1          2          3          4          5    
      0       0.000000   0.000000   0.000000   0.000000   0.000000   0.000000
      1       0.000000   0.000000   0.000000   0.000000   0.000000   0.000000
      2       0.000000   0.000000   0.000000   0.000000   0.000000   0.000000
      3       0.000000   0.000000   0.000000   0.000000   0.000000   0.000000
      4       0.000000   0.000000   0.000000   0.000000   0.000000   0.000000
      5       0.000000   0.000000   0.000000   0.000000   0.000000   0.000000
      6       0.000000   0.000000   0.000000   0.000000   0.000000   0.000000
      7       0.000000   0.000000   0.000000   0.000000   0.000000   0.000000
      8       0.000000   0.000000   0.000000   0.000000   0.000000   0.000000
      9       0.000000   0.000000   0.000000   0.000000   0.000000   0.000000
     10       0.000000   0.000000   0.000000   0.000000   0.000000   0.000000
     11       0.000000   0.000000   0.000000   0.000000   0.000000   0.000000
                  6          7          8          9         10         11    
      0      -0.007698   0.000005   0.068222  -0.001297   0.082811  -0.000049
      1      -0.000001  -0.068609   0.000005   0.000001   0.000049   0.082788
      2       0.125622  -0.000001   0.012762   0.058229   0.000912  -0.000002
      3      -0.294299   0.000016   0.152852   0.538994  -0.704473   0.000411
      4       0.000012   0.726277  -0.000055   0.000001   0.000033   0.055602
      5      -0.535015   0.000028   0.268767  -0.237357   0.384143  -0.000225
      6       0.193017   0.392921  -0.482911  -0.261763  -0.140937   0.333014
      7      -0.192641   0.045597  -0.415146   0.451943   0.339863  -0.521249
      8      -0.480931  -0.278230  -0.210394  -0.228234  -0.197305   0.335842
      9       0.193004  -0.393001  -0.482851  -0.261775  -0.141335  -0.332835
     10       0.192642   0.045654   0.415139  -0.451961  -0.340486  -0.520827
     11      -0.480922   0.278212  -0.210436  -0.228246  -0.197707  -0.335598


-----------
IR SPECTRUM
-----------

 Mode   freq       eps      Int      T**2         TX        TY        TZ
       cm**-1   L/(mol*cm) km/mol    a.u.
----------------------------------------------------------------------------
  6:   1362.30   0.001295    6.54  0.000297  ( 0.001851  0.000000 -0.017122)
  7:   1377.57   0.001121    5.66  0.000254  (-0.000001  0.015935  0.000000)
  8:   1378.76   0.001153    5.82  0.000261  (-0.016046 -0.000001 -0.001842)
  9:   3037.29   0.000017    0.08  0.000002  (-0.000531  0.000001  0.001202)
 10:   3048.61   0.008375   42.32  0.000857  ( 0.029279  0.000018  0.000056)
 11:   3048.79   0.008543   43.17  0.000874  (-0.000017  0.029571 -0.000000)

* The epsilon (eps) is given for a Dirac delta lineshape.
** The dipole moment derivative (T) already includes vibrational overlap.

The first frequency considered to be a vibration is 6
The total number of vibrations considered is 6


--------------------------
THERMOCHEMISTRY AT 298.15K
--------------------------

Temperature         ... 298.15 K
Pressure            ... 1.00 atm
Total Mass          ... 15.03 AMU

Throughout the following assumptions are being made:
  (1) The electronic state is orbitally nondegenerate
      but the spin degeneracy is treated
  (2) There are no thermally accessible electronically excited states
  (3) Hindered rotations indicated by low frequency modes are not
      treated as such but are treated as vibrations and this may
      cause some error
  (4) All equations used are the standard statistical mechanics
      equations for an ideal gas
  (5) All vibrations are strictly harmonic

freq.    1362.30  E(vib)   ...       0.01 
freq.    1377.57  E(vib)   ...       0.01 
freq.    1378.76  E(vib)   ...       0.01 
freq.    3037.29  E(vib)   ...       0.00 
freq.    3048.61  E(vib)   ...       0.00 
freq.    3048.79  E(vib)   ...       0.00 

------------
INNER ENERGY
------------

The inner energy is: U= E(el) + E(ZPE) + E(vib) + E(rot) + E(trans)
    E(el)   - is the total energy from the electronic structure calculation
              = E(kin-el) + E(nuc-el) + E(el-el) + E(nuc-nuc)
    E(ZPE)  - the the zero temperature vibrational energy from the frequency calculation
    E(vib)  - the the finite temperature correction to E(ZPE) due to population
              of excited vibrational states
    E(rot)  - is the rotational thermal energy
    E(trans)- is the translational thermal energy

Summary of contributions to the inner energy U:
Electronic energy                ...    -39.79907696 Eh
Zero point energy                ...      0.03019328 Eh      18.95 kcal/mol
Thermal vibrational correction   ...      0.00002496 Eh       0.02 kcal/mol
Thermal rotational correction    ...      0.00141627 Eh       0.89 kcal/mol
Thermal translational correction ...      0.00141627 Eh       0.89 kcal/mol
-----------------------------------------------------------------------
Total thermal energy                    -39.76602617 Eh


Summary of corrections to the electronic energy:
(perhaps to be used in another calculation)
Total thermal correction                  0.00285751 Eh       1.79 kcal/mol
Non-thermal (ZPE) correction              0.03019328 Eh      18.95 kcal/mol
-----------------------------------------------------------------------
Total correction                          0.03305078 Eh      20.74 kcal/mol


--------
ENTHALPY
--------

The enthalpy is H = U + kB*T
                kB is Boltzmann's constant
Total free energy                 ...    -39.76602617 Eh 
Thermal Enthalpy correction       ...      0.00094421 Eh       0.59 kcal/mol
-----------------------------------------------------------------------
Total Enthalpy                    ...    -39.76508196 Eh


Note: Rotational entropy computed according to Herzberg 
Infrared and Raman Spectra, Chapter V,1, Van Nostrand Reinhold, 1945 
Point Group:  C3v, Symmetry Number:   3  
Rotational constants in cm-1:     7.974068     7.973881     6.200383 

Vibrational entropy computed according to the QRRHO of S. Grimme
Chem.Eur.J. 2012 18 9955


-------
ENTROPY
-------

The entropy contributions are T*S = T*(S(el)+S(vib)+S(rot)+S(trans))
     S(el)   - electronic entropy
     S(vib)  - vibrational entropy
     S(rot)  - rotational entropy
     S(trans)- translational entropy
The entropies will be listed as multiplied by the temperature to get
units of energy

Electronic entropy                ...      0.00065446 Eh      0.41 kcal/mol
Vibrational entropy               ...      0.00002874 Eh      0.02 kcal/mol
Rotational entropy                ...      0.00565185 Eh      3.55 kcal/mol
Translational entropy             ...      0.01618771 Eh     10.16 kcal/mol
-----------------------------------------------------------------------
Final entropy term                ...      0.02252275 Eh     14.13 kcal/mol

In case the symmetry of your molecule has not been determined correctly
or in case you have a reason to use a different symmetry number we print 
out the resulting rotational entropy values for sn=1,12 :
 --------------------------------------------------------
|  sn= 1 | S(rot)=       0.00668914 Eh      4.20 kcal/mol|
|  sn= 2 | S(rot)=       0.00603468 Eh      3.79 kcal/mol|
|  sn= 3 | S(rot)=       0.00565185 Eh      3.55 kcal/mol|
|  sn= 4 | S(rot)=       0.00538022 Eh      3.38 kcal/mol|
|  sn= 5 | S(rot)=       0.00516954 Eh      3.24 kcal/mol|
|  sn= 6 | S(rot)=       0.00499739 Eh      3.14 kcal/mol|
|  sn= 7 | S(rot)=       0.00485184 Eh      3.04 kcal/mol|
|  sn= 8 | S(rot)=       0.00472577 Eh      2.97 kcal/mol|
|  sn= 9 | S(rot)=       0.00461456 Eh      2.90 kcal/mol|
|  sn=10 | S(rot)=       0.00451508 Eh      2.83 kcal/mol|
|  sn=11 | S(rot)=       0.00442509 Eh      2.78 kcal/mol|
|  sn=12 | S(rot)=       0.00434293 Eh      2.73 kcal/mol|
 --------------------------------------------------------


-------------------
GIBBS FREE ENERGY
-------------------

The Gibbs free energy is G = H - T*S

Total enthalpy                    ...    -39.76508196 Eh 
Total entropy correction          ...     -0.02252275 Eh    -14.13 kcal/mol
-----------------------------------------------------------------------
Final Gibbs free energy         ...    -39.78760471 Eh

For completeness - the Gibbs free energy minus the electronic energy
G-E(el)                           ...      0.01147225 Eh      7.20 kcal/mol


Timings for individual modules:

Sum of individual times         ...       63.693 sec (=   1.062 min)
GTO integral calculation        ...       11.144 sec (=   0.186 min)  17.5 %
SCF iterations                  ...       33.999 sec (=   0.567 min)  53.4 %
SCF Gradient evaluation         ...        9.157 sec (=   0.153 min)  14.4 %
Geometry relaxation             ...        0.169 sec (=   0.003 min)   0.3 %
Analytical frequency calculation...        9.224 sec (=   0.154 min)  14.5 %
                             ****ORCA TERMINATED NORMALLY****
TOTAL RUN TIME: 0 days 0 hours 1 minutes 15 seconds 575 msec

slurmID:    32260135
totalRuntime[s]:    75.631703685
