
                                 *****************
                                 * O   R   C   A *
                                 *****************

                                            #,                                       
                                            ###                                      
                                            ####                                     
                                            #####                                    
                                            ######                                   
                                           ########,                                 
                                     ,,################,,,,,                         
                               ,,#################################,,                 
                          ,,##########################################,,             
                       ,#########################################, ''#####,          
                    ,#############################################,,   '####,        
                  ,##################################################,,,,####,       
                ,###########''''           ''''###############################       
              ,#####''   ,,,,##########,,,,          '''####'''          '####       
            ,##' ,,,,###########################,,,                        '##       
           ' ,,###''''                  '''############,,,                           
         ,,##''                                '''############,,,,        ,,,,,,###''
      ,#''                                            '''#######################'''  
     '                                                          ''''####''''         
             ,#######,   #######,   ,#######,      ##                                
            ,#'     '#,  ##    ##  ,#'     '#,    #''#        ######   ,####,        
            ##       ##  ##   ,#'  ##            #'  '#       #        #'  '#        
            ##       ##  #######   ##           ,######,      #####,   #    #        
            '#,     ,#'  ##    ##  '#,     ,#' ,#      #,         ##   #,  ,#        
             '#######'   ##     ##  '#######'  #'      '#     #####' # '####'        



                  #######################################################
                  #                        -***-                        #
                  #          Department of theory and spectroscopy      #
                  #    Directorship and core code : Frank Neese         #
                  #        Max Planck Institute fuer Kohlenforschung    #
                  #                Kaiser Wilhelm Platz 1               #
                  #                 D-45470 Muelheim/Ruhr               #
                  #                      Germany                        #
                  #                                                     #
                  #                  All rights reserved                #
                  #                        -***-                        #
                  #######################################################


                         Program Version 5.0.4 -  RELEASE  -


 With contributions from (in alphabetic order):
   Daniel Aravena         : Magnetic Suceptibility
   Michael Atanasov       : Ab Initio Ligand Field Theory (pilot matlab implementation)
   Alexander A. Auer      : GIAO ZORA, VPT2 properties, NMR spectrum
   Ute Becker             : Parallelization
   Giovanni Bistoni       : ED, misc. LED, open-shell LED, HFLD
   Martin Brehm           : Molecular dynamics
   Dmytro Bykov           : SCF Hessian
   Vijay G. Chilkuri      : MRCI spin determinant printing, contributions to CSF-ICE
   Dipayan Datta          : RHF DLPNO-CCSD density
   Achintya Kumar Dutta   : EOM-CC, STEOM-CC
   Dmitry Ganyushin       : Spin-Orbit,Spin-Spin,Magnetic field MRCI
   Miquel Garcia          : C-PCM and meta-GGA Hessian, CC/C-PCM, Gaussian charge scheme
   Yang Guo               : DLPNO-NEVPT2, F12-NEVPT2, CIM, IAO-localization
   Andreas Hansen         : Spin unrestricted coupled pair/coupled cluster methods
   Benjamin Helmich-Paris : MC-RPA, TRAH-SCF, COSX integrals
   Lee Huntington         : MR-EOM, pCC
   Robert Izsak           : Overlap fitted RIJCOSX, COSX-SCS-MP3, EOM
   Marcus Kettner         : VPT2
   Christian Kollmar      : KDIIS, OOCD, Brueckner-CCSD(T), CCSD density, CASPT2, CASPT2-K
   Simone Kossmann        : Meta GGA functionals, TD-DFT gradient, OOMP2, MP2 Hessian
   Martin Krupicka        : Initial AUTO-CI
   Lucas Lang             : DCDCAS
   Marvin Lechner         : AUTO-CI (C++ implementation), FIC-MRCC
   Dagmar Lenk            : GEPOL surface, SMD
   Dimitrios Liakos       : Extrapolation schemes; Compound Job, initial MDCI parallelization
   Dimitrios Manganas     : Further ROCIS development; embedding schemes
   Dimitrios Pantazis     : SARC Basis sets
   Anastasios Papadopoulos: AUTO-CI, single reference methods and gradients
   Taras Petrenko         : DFT Hessian,TD-DFT gradient, ASA, ECA, R-Raman, ABS, FL, XAS/XES, NRVS
   Peter Pinski           : DLPNO-MP2, DLPNO-MP2 Gradient
   Christoph Reimann      : Effective Core Potentials
   Marius Retegan         : Local ZFS, SOC
   Christoph Riplinger    : Optimizer, TS searches, QM/MM, DLPNO-CCSD(T), (RO)-DLPNO pert. Triples
   Tobias Risthaus        : Range-separated hybrids, TD-DFT gradient, RPA, STAB
   Michael Roemelt        : Original ROCIS implementation
   Masaaki Saitow         : Open-shell DLPNO-CCSD energy and density
   Barbara Sandhoefer     : DKH picture change effects
   Avijit Sen             : IP-ROCIS
   Kantharuban Sivalingam : CASSCF convergence, NEVPT2, FIC-MRCI
   Bernardo de Souza      : ESD, SOC TD-DFT
   Georgi Stoychev        : AutoAux, RI-MP2 NMR, DLPNO-MP2 response
   Willem Van den Heuvel  : Paramagnetic NMR
   Boris Wezisla          : Elementary symmetry handling
   Frank Wennmohs         : Technical directorship


 We gratefully acknowledge several colleagues who have allowed us to
 interface, adapt or use parts of their codes:
   Stefan Grimme, W. Hujo, H. Kruse, P. Pracht,  : VdW corrections, initial TS optimization,
                  C. Bannwarth, S. Ehlert          DFT functionals, gCP, sTDA/sTD-DF
   Ed Valeev, F. Pavosevic, A. Kumar             : LibInt (2-el integral package), F12 methods
   Garnet Chan, S. Sharma, J. Yang, R. Olivares  : DMRG
   Ulf Ekstrom                                   : XCFun DFT Library
   Mihaly Kallay                                 : mrcc  (arbitrary order and MRCC methods)
   Jiri Pittner, Ondrej Demel                    : Mk-CCSD
   Frank Weinhold                                : gennbo (NPA and NBO analysis)
   Christopher J. Cramer and Donald G. Truhlar   : smd solvation model
   Lars Goerigk                                  : TD-DFT with DH, B97 family of functionals
   V. Asgeirsson, H. Jonsson                     : NEB implementation
   FAccTs GmbH                                   : IRC, NEB, NEB-TS, DLPNO-Multilevel, CI-OPT
                                                   MM, QMMM, 2- and 3-layer-ONIOM, Crystal-QMMM,
                                                   LR-CPCM, SF, NACMEs, symmetry and pop. for TD-DFT,
                                                   nearIR, NL-DFT gradient (VV10), updates on ESD,
                                                   ML-optimized integration grids
   S Lehtola, MJT Oliveira, MAL Marques          : LibXC Library
   Liviu Ungur et al                             : ANISO software


 Your calculation uses the libint2 library for the computation of 2-el integrals
 For citations please refer to: http://libint.valeyev.net

 Your ORCA version has been built with support for libXC version: 5.1.0
 For citations please refer to: https://tddft.org/programs/libxc/

 This ORCA versions uses:
   CBLAS   interface :  Fast vector & matrix operations
   LAPACKE interface :  Fast linear algebra routines
   SCALAPACK package :  Parallel linear algebra routines
   Shared memory     :  Shared parallel matrices
   BLAS/LAPACK       :  OpenBLAS 0.3.15  USE64BITINT DYNAMIC_ARCH NO_AFFINITY SkylakeX SINGLE_THREADED
        Core in use  :  SkylakeX
   Copyright (c) 2011-2014, The OpenBLAS Project


Your calculation utilizes the atom-pairwise dispersion correction
with the zero-damping scheme (D30)
Cite in your paper:
S.Grimme, J.Antony, S.Ehrlich and H.Krieg, J.Chem.Phys., 132, (2010), 154104 
   

XCFun DFT library Copyright 2009-2010 Ulf Ekstrom and contributors.
See http://admol.org/xcfun for more information.
This is free software; see the source code for copying conditions.
There is ABSOLUTELY NO WARRANTY; not even for MERCHANTABILITY or FITNESS FOR A PARTICULAR PURPOSE.
For details see the documentation.
Scientific users of this library should cite U. Ekstrom, L. Visscher, R. Bast, A. J. Thorvaldsen and K. Ruud;
J.Chem.Theor.Comp. 2010, DOI: 10.1021/ct100117s
XCFun Version 0.99 

================================================================================

----- Orbital basis set information -----
Your calculation utilizes the basis: def2-TZVPD
   F. Weigend and R. Ahlrichs, Phys. Chem. Chem. Phys. 7, 3297 (2005).
   D. Rappoport and F. Furche, J. Chem. Phys. 133 134105 (2010).

----- AuxJ basis set information -----
Your calculation utilizes the auxiliary basis: def2/J
   F. Weigend, Phys. Chem. Chem. Phys. 8, 1057 (2006).

================================================================================
                                        WARNINGS
                       Please study these warnings very carefully!
================================================================================


WARNING: Geometry Optimization
  ===> : Switching off AutoStart
         For restart on a previous wavefunction, please use MOREAD

INFO   : the flag for use of the SHARK integral package has been found!

================================================================================
                                       INPUT FILE
================================================================================
NAME = /beegfs/scratch/ispackman/PFAS_EPR_calcs/benchmark/JChemEd_CF3_radical/CH3_radical_107.0_degrees_IN-PROGRESS/CH3_radical_107.0_degrees.inp
|  1> ! UKS TightSCF wB97x-D3 def2-TZVPD xyzfile opt freq
|  2> 
|  3> # CH3 radical 107.0 degrees fixed
|  4> 
|  5> %maxcore 1000
|  6> %pal
|  7> nprocs 18
|  8> end
|  9> 
| 10> %geom Constraints
| 11>         { A * 0 * C }
| 12>     end
| 13> end
| 14> * xyz 0 2
| 15> C 0.00 0.00 0.00
| 16> H 1.0024710657 0.0000000000 -0.4018106051
| 17> H -0.5012355329 0.8681654095 -0.4018106051
| 18> H -0.5012355329 -0.8681654095 -0.4018106051
| 19> **                         ****END OF INPUT****
================================================================================

                       *****************************
                       * Geometry Optimization Run *
                       *****************************

Geometry optimization settings:
Update method            Update   .... BFGS
Choice of coordinates    CoordSys .... Z-matrix Internals
Initial Hessian          InHess   .... Almoef's Model

Convergence Tolerances:
Energy Change            TolE     ....  5.0000e-06 Eh
Max. Gradient            TolMAXG  ....  3.0000e-04 Eh/bohr
RMS Gradient             TolRMSG  ....  1.0000e-04 Eh/bohr
Max. Displacement        TolMAXD  ....  4.0000e-03 bohr
RMS Displacement         TolRMSD  ....  2.0000e-03 bohr
Strict Convergence                ....  False
------------------------------------------------------------------------------
                        ORCA OPTIMIZATION COORDINATE SETUP
------------------------------------------------------------------------------

The optimization will be done in new redundant internal coordinates
Making redundant internal coordinates   ...  (new redundants) done
Evaluating the initial hessian          ...  (Almloef) done
Evaluating the coordinates              ...  done
Calculating the B-matrix                .... done
Calculating the G-matrix                .... done
Diagonalizing the G-matrix              .... done
Imposing constraints:
 Iter   0:  RMS(Cart)=    0.0000000000 RMS(Int)=    0.0000000000
CONVERGED
Will constrain atom 0 coordinate 1 
Will constrain atom 0 coordinate 2 
Will constrain atom 1 coordinate 2 
The first mode is                       ....    1
The number of degrees of freedom        ....    6
Storing new coordinates                 .... done

    -----------------------------------------------------------------
                    Redundant Internal Coordinates


    -----------------------------------------------------------------
         Definition                    Initial Value    Approx d2E/dq
    -----------------------------------------------------------------
      1. B(H   1,C   0)                  1.0800         0.373575   
      2. B(H   2,C   0)                  1.0800         0.373575   
      3. B(H   3,C   0)                  1.0800         0.373575   
      4. A(H   2,C   0,H   3)          107.0000         0.294224 C 
      5. A(H   1,C   0,H   2)          107.0000         0.294224 C 
      6. A(H   1,C   0,H   3)          107.0000         0.294224 C 
      7. I(H   1,H   3,H   2,C   0)     60.5590         0.003697   
    -----------------------------------------------------------------

Number of atoms                         .... 4
Number of degrees of freedom            .... 7

         *************************************************************
         *                GEOMETRY OPTIMIZATION CYCLE   1            *
         *************************************************************
---------------------------------
CARTESIAN COORDINATES (ANGSTROEM)
---------------------------------
  C      0.000000    0.000000    0.000000
  H      1.002471    0.000000   -0.401811
  H     -0.501236    0.868165   -0.401811
  H     -0.501236   -0.868165   -0.401811

----------------------------
CARTESIAN COORDINATES (A.U.)
----------------------------
  NO LB      ZA    FRAG     MASS         X           Y           Z
   0 C     6.0000    0    12.011    0.000000    0.000000    0.000000
   1 H     1.0000    0     1.008    1.894396    0.000000   -0.759312
   2 H     1.0000    0     1.008   -0.947198    1.640595   -0.759312
   3 H     1.0000    0     1.008   -0.947198   -1.640595   -0.759312

--------------------------------
INTERNAL COORDINATES (ANGSTROEM)
--------------------------------
 C      0   0   0     0.000000000000     0.00000000     0.00000000
 H      1   0   0     1.079999999971     0.00000000     0.00000000
 H      1   2   0     1.080000000030   107.00000000     0.00000000
 H      1   2   3     1.080000000030   107.00000000   114.40420740

---------------------------
INTERNAL COORDINATES (A.U.)
---------------------------
 C      0   0   0     0.000000000000     0.00000000     0.00000000
 H      1   0   0     2.040904224579     0.00000000     0.00000000
 H      1   2   0     2.040904224692   107.00000000     0.00000000
 H      1   2   3     2.040904224692   107.00000000   114.40420740

---------------------
BASIS SET INFORMATION
---------------------
There are 2 groups of distinct atoms

 Group   1 Type C   : 12s6p3d1f contracted to 6s3p3d1f pattern {621111/411/111/1}
 Group   2 Type H   : 5s2p contracted to 3s2p pattern {311/11}

Atom   0C    basis set group =>   1
Atom   1H    basis set group =>   2
Atom   2H    basis set group =>   2
Atom   3H    basis set group =>   2
---------------------------------
AUXILIARY/J BASIS SET INFORMATION
---------------------------------
There are 2 groups of distinct atoms

 Group   1 Type C   : 12s5p4d2f1g contracted to 6s4p3d1f1g pattern {711111/2111/211/2/1}
 Group   2 Type H   : 5s2p1d contracted to 3s1p1d pattern {311/2/1}

Atom   0C    basis set group =>   1
Atom   1H    basis set group =>   2
Atom   2H    basis set group =>   2
Atom   3H    basis set group =>   2


           ************************************************************
           *        Program running with 18 parallel MPI-processes    *
           *              working on a common directory               *
           ************************************************************
------------------------------------------------------------------------------
                           ORCA GTO INTEGRAL CALCULATION
                           -- RI-GTO INTEGRALS CHOSEN --
------------------------------------------------------------------------------
------------------------------------------------------------------------------
                   ___                                                        
                  /   \      - P O W E R E D   B Y -                         
                 /     \                                                     
                 |  |  |   _    _      __       _____    __    __             
                 |  |  |  | |  | |    /  \     |  _  \  |  |  /  |          
                  \  \/   | |  | |   /    \    | | | |  |  | /  /          
                 / \  \   | |__| |  /  /\  \   | |_| |  |  |/  /          
                |  |  |   |  __  | /  /__\  \  |    /   |      \           
                |  |  |   | |  | | |   __   |  |    \   |  |\   \          
                \     /   | |  | | |  |  |  |  | |\  \  |  | \   \       
                 \___/    |_|  |_| |__|  |__|  |_| \__\ |__|  \__/        
                                                                              
                      - O R C A' S   B I G   F R I E N D -                    
                                      &                                       
                       - I N T E G R A L  F E E D E R -                       
                                                                              
 v1 FN, 2020, v2 2021                                                         
------------------------------------------------------------------------------


Reading SHARK input file /beegfs/scratch/ispackman/PFAS_EPR_calcs/benchmark/JChemEd_CF3_radical/CH3_radical_107.0_degrees_IN-PROGRESS/CH3_radical_107.0_degrees.SHARKINP.tmp ... ok
----------------------
SHARK INTEGRAL PACKAGE
----------------------

Number of atoms                             ...      4
Number of basis functions                   ...     64
Number of shells                            ...     28
Maximum angular momentum                    ...      3
Integral batch strategy                     ... SHARK/LIBINT Hybrid
RI-J (if used) integral strategy            ... SPLIT-RIJ (Revised 2003 algorithm where possible)
Printlevel                                  ...      1
Contraction scheme used                     ... SEGMENTED contraction
Coulomb Range Separation                    ... NOT USED
Exchange Range Separation                   ... Long Range
   Mu parameter                             ...  0.250000
   Scaling (regular/separated)              ...  0.195728  0.804272
Finite Nucleus Model                        ... NOT USED
Auxiliary Coulomb fitting basis             ... AVAILABLE
   # of basis functions in Aux-J            ...     82
   # of shells in Aux-J                     ...     30
   Maximum angular momentum in Aux-J        ...      4
Auxiliary J/K fitting basis                 ... NOT available
Auxiliary Correlation fitting basis         ... NOT available
Auxiliary 'external' fitting basis          ... NOT available
Integral threshold                          ...     2.500000e-11
Primitive cut-off                           ...     2.500000e-12
Primitive pair pre-selection threshold      ...     2.500000e-12

Calculating pre-screening integrals         ... done (  0.0 sec) Dimension = 28
Organizing shell pair data                  ... done (  0.0 sec)
Shell pair information
Total number of shell pairs                 ...       406
Shell pairs after pre-screening             ...       406
Total number of primitive shell pairs       ...       977
Primitive shell pairs kept                  ...       947
          la=0 lb=0:    120 shell pairs
          la=1 lb=0:    135 shell pairs
          la=1 lb=1:     45 shell pairs
          la=2 lb=0:     45 shell pairs
          la=2 lb=1:     27 shell pairs
          la=2 lb=2:      6 shell pairs
          la=3 lb=0:     15 shell pairs
          la=3 lb=1:      9 shell pairs
          la=3 lb=2:      3 shell pairs
          la=3 lb=3:      1 shell pairs

Calculating one electron integrals          ... done (  0.0 sec)
Calculating RI/J V-Matrix + Cholesky decomp.... done (  0.2 sec)
Calculating Nuclear repulsion               ... done (  0.0 sec) ENN=      9.733922647624 Eh

SHARK setup successfully completed in   0.6 seconds

Maximum memory used throughout the entire GTOINT-calculation: 14.0 MB


           ************************************************************
           *        Program running with 18 parallel MPI-processes    *
           *              working on a common directory               *
           ************************************************************
-------------------------------------------------------------------------------
                                 ORCA SCF
-------------------------------------------------------------------------------

------------
SCF SETTINGS
------------
Hamiltonian:
 Density Functional     Method          .... DFT(GTOs)
 Exchange Functional    Exchange        .... WB97X-D3
 Correlation Functional Correlation     .... WB97X-D3
 Gradients option       PostSCFGGA      .... off
 Hybrid DFT is turned on
   Fraction HF Exchange ScalHFX         ....  0.195728
   Scaling of DF-GGA-X  ScalDFX         ....  0.000000
   Scaling of DF-GGA-C  ScalDFC         ....  1.000000
   Scaling of DF-LDA-C  ScalLDAC        ....  1.000000
   Perturbative correction              ....  0.000000
   Density functional embedding theory  .... OFF
 Long-range corrected/Screened/Range-Separated Hybrid DFT is turned on
   Amount of maximum screened exact exchange              ....  0.804272
   Range separation parameter mu (erf(mu*r12)/r12)        ....  0.250000
 RI-approximation to the Coulomb term is turned on
   Number of AuxJ basis functions       .... 82
   RIJ-COSX (HFX calculated with COS-X)).... on


General Settings:
 Integral files         IntName         .... /beegfs/scratch/ispackman/PFAS_EPR_calcs/benchmark/JChemEd_CF3_radical/CH3_radical_107.0_degrees_IN-PROGRESS/CH3_radical_107.0_degrees
 Hartree-Fock type      HFTyp           .... UHF
 Total Charge           Charge          ....    0
 Multiplicity           Mult            ....    2
 Number of Electrons    NEL             ....    9
 Basis Dimension        Dim             ....   64
 Nuclear Repulsion      ENuc            ....      9.7339226476 Eh

Convergence Acceleration:
 DIIS                   CNVDIIS         .... on
   Start iteration      DIISMaxIt       ....    12
   Startup error        DIISStart       ....  0.200000
   # of expansion vecs  DIISMaxEq       ....     5
   Bias factor          DIISBfac        ....   1.050
   Max. coefficient     DIISMaxC        ....  10.000
 Trust-Rad. Augm. Hess. CNVTRAH         .... auto
   Auto Start mean grad. ratio tolernc. ....  1.125000
   Auto Start start iteration           ....    20
   Auto Start num. interpolation iter.  ....    10
   Max. Number of Micro iterations      ....    16
   Max. Number of Macro iterations      .... Maxiter - #DIIS iter
   Number of Davidson start vectors     ....     2
   Converg. threshold I  (grad. norm)   ....   1.000e-05
   Converg. threshold II (energy diff.) ....   1.000e-08
   Grad. Scal. Fac. for Micro threshold ....   0.100
   Minimum threshold for Micro iter.    ....   0.010
   NR start threshold (gradient norm)   ....   0.001
   Initial trust radius                 ....   0.400
   Minimum AH scaling param. (alpha)    ....   1.000
   Maximum AH scaling param. (alpha)    .... 1000.000
   Orbital update algorithm             .... Taylor
   White noise on init. David. guess    .... on
   Maximum white noise                  ....   0.010
   Quad. conv. algorithm                .... NR
 SOSCF                  CNVSOSCF        .... off
 Level Shifting         CNVShift        .... on
   Level shift para.    LevelShift      ....    0.2500
   Turn off err/grad.   ShiftErr        ....    0.0010
 Zerner damping         CNVZerner       .... off
 Static damping         CNVDamp         .... on
   Fraction old density DampFac         ....    0.7000
   Max. Damping (<1)    DampMax         ....    0.9800
   Min. Damping (>=0)   DampMin         ....    0.0000
   Turn off err/grad.   DampErr         ....    0.1000
 Fernandez-Rico         CNVRico         .... off

SCF Procedure:
 Maximum # iterations   MaxIter         ....   125
 SCF integral mode      SCFMode         .... Direct
   Integral package                     .... SHARK and LIBINT hybrid scheme
 Reset frequency        DirectResetFreq ....    20
 Integral Threshold     Thresh          ....  2.500e-11 Eh
 Primitive CutOff       TCut            ....  2.500e-12 Eh

Convergence Tolerance:
 Convergence Check Mode ConvCheckMode   .... Total+1el-Energy
 Convergence forced     ConvForced      .... 0
 Energy Change          TolE            ....  1.000e-08 Eh
 1-El. energy change                    ....  1.000e-05 Eh
 DIIS Error             TolErr          ....  5.000e-07


Diagonalization of the overlap matrix:
Smallest eigenvalue                        ... 4.879e-05
Time for diagonalization                   ...    0.002 sec
Threshold for overlap eigenvalues          ... 1.000e-08
Number of eigenvalues below threshold      ... 0
Time for construction of square roots      ...    0.091 sec
Total time needed                          ...    0.094 sec

Time for model grid setup =    0.110 sec

------------------------------
INITIAL GUESS: MODEL POTENTIAL
------------------------------
Loading Hartree-Fock densities                     ... done
Calculating cut-offs                               ... done
Initializing the effective Hamiltonian             ... done
Setting up the integral package (SHARK)            ... done
Starting the Coulomb interaction                   ... done (   0.2 sec)
Reading the grid                                   ... done
Mapping shells                                     ... done
Starting the XC term evaluation                    ... done (   0.0 sec)
  promolecular density results
     # of electrons  =      8.997967688
     EX              =     -5.934739110
     EC              =     -0.259706035
     EX+EC           =     -6.194445145
Transforming the Hamiltonian                       ... done (   0.0 sec)
Diagonalizing the Hamiltonian                      ... done (   0.0 sec)
Back transforming the eigenvectors                 ... done (   0.0 sec)
Now organizing SCF variables                       ... done
                      ------------------
                      INITIAL GUESS DONE (   0.4 sec)
                      ------------------
-------------------
DFT GRID GENERATION
-------------------

General Integration Accuracy     IntAcc      ... 4.388
Radial Grid Type                 RadialGrid  ... OptM3 with GC (2021)
Angular Grid (max. ang.)         AngularGrid ... 4 (Lebedev-302)
Angular grid pruning method      GridPruning ... 4 (adaptive)
Weight generation scheme         WeightScheme... Becke
Basis function cutoff            BFCut       ... 1.0000e-11
Integration weight cutoff        WCut        ... 1.0000e-14
Angular grids for H and He will be reduced by one unit
Partially contracted basis set               ... off
Rotationally invariant grid construction     ... off

Total number of grid points                  ...    17047
Total number of batches                      ...      268
Average number of points per batch           ...       63
Average number of grid points per atom       ...     4262
Time for grid setup =    0.149 sec

--------------------
COSX GRID GENERATION
--------------------

GRIDX 1
-------
General Integration Accuracy     IntAcc      ... 3.816
Radial Grid Type                 RadialGrid  ... OptM3 with GC (2021)
Angular Grid (max. ang.)         AngularGrid ... 1 (Lebedev-50)
Angular grid pruning method      GridPruning ... 4 (adaptive)
Weight generation scheme         WeightScheme... Becke
Basis function cutoff            BFCut       ... 1.0000e-11
Integration weight cutoff        WCut        ... 1.0000e-14
Angular grids for H and He will be reduced by one unit
Partially contracted basis set               ... on
Rotationally invariant grid construction     ... off

Total number of grid points                  ...     2151
Total number of batches                      ...       36
Average number of points per batch           ...       59
Average number of grid points per atom       ...      538
UseSFitting                                  ... on

GRIDX 2
-------
General Integration Accuracy     IntAcc      ... 4.020
Radial Grid Type                 RadialGrid  ... OptM3 with GC (2021)
Angular Grid (max. ang.)         AngularGrid ... 2 (Lebedev-110)
Angular grid pruning method      GridPruning ... 4 (adaptive)
Weight generation scheme         WeightScheme... Becke
Basis function cutoff            BFCut       ... 1.0000e-11
Integration weight cutoff        WCut        ... 1.0000e-14
Angular grids for H and He will be reduced by one unit
Partially contracted basis set               ... on
Rotationally invariant grid construction     ... off

Total number of grid points                  ...     5041
Total number of batches                      ...       81
Average number of points per batch           ...       62
Average number of grid points per atom       ...     1260
UseSFitting                                  ... on

GRIDX 3
-------
General Integration Accuracy     IntAcc      ... 4.338
Radial Grid Type                 RadialGrid  ... OptM3 with GC (2021)
Angular Grid (max. ang.)         AngularGrid ... 3 (Lebedev-194)
Angular grid pruning method      GridPruning ... 4 (adaptive)
Weight generation scheme         WeightScheme... Becke
Basis function cutoff            BFCut       ... 1.0000e-11
Integration weight cutoff        WCut        ... 1.0000e-14
Angular grids for H and He will be reduced by one unit
Partially contracted basis set               ... on
Rotationally invariant grid construction     ... off

Total number of grid points                  ...    11711
Total number of batches                      ...      185
Average number of points per batch           ...       63
Average number of grid points per atom       ...     2928
UseSFitting                                  ... on

Time for X-Grid setup             =    0.657 sec

--------------
SCF ITERATIONS
--------------
ITER       Energy         Delta-E        Max-DP      RMS-DP      [F,P]     Damp
               ***  Starting incremental Fock matrix formation  ***
  0    -39.7874761722   0.000000000000 0.04668494  0.00102015  0.0771395 0.7000
  1    -39.8011747284  -0.013698556232 0.04523324  0.00090863  0.0494016 0.7000
                               ***Turning on DIIS***
  2    -39.8088945343  -0.007719805930 0.10106317  0.00204177  0.0284363 0.0000
  3    -39.8221873779  -0.013292843537 0.02843512  0.00059024  0.0193998 0.0000
  4    -39.8237494916  -0.001562113745 0.01087112  0.00019336  0.0034425 0.0000
  5    -39.8238162250  -0.000066733359 0.00923743  0.00015842  0.0016002 0.0000
  6    -39.8238370543  -0.000020829314 0.00940901  0.00015721  0.0006257 0.0000
               *** Restarting incremental Fock matrix formation ***
                                   *** Resetting DIIS ***
  7    -39.8238501879  -0.000013133620 0.00117485  0.00001928  0.0000808 0.0000
  8    -39.8238503187  -0.000000130822 0.00059581  0.00000996  0.0000353 0.0000
  9    -39.8238503552  -0.000000036507 0.00001850  0.00000075  0.0000136 0.0000
 10    -39.8238503571  -0.000000001894 0.00000704  0.00000022  0.0000052 0.0000
                 **** Energy Check signals convergence ****

               *****************************************************
               *                     SUCCESS                       *
               *           SCF CONVERGED AFTER  11 CYCLES          *
               *****************************************************

Old exchange energy                            =     -2.173879771 Eh
New exchange energy                            =     -2.173884146 Eh
Exchange energy change after final integration =     -0.000004375 Eh
Total energy after final integration           =    -39.823854732 Eh
Final COS-X integration done in                =     0.129 sec

----------------
TOTAL SCF ENERGY
----------------

Total Energy       :          -39.82385473 Eh           -1083.66218 eV

Components:
Nuclear Repulsion  :            9.73392265 Eh             264.87350 eV
Electronic Energy  :          -49.55777738 Eh           -1348.53568 eV
One Electron Energy:          -71.74014473 Eh           -1952.14858 eV
Two Electron Energy:           22.18236736 Eh             603.61290 eV
Max COSX asymmetry :            0.00000014 Eh               0.00000 eV

Virial components:
Potential Energy   :          -79.48133514 Eh           -2162.79708 eV
Kinetic Energy     :           39.65748041 Eh            1079.13490 eV
Virial Ratio       :            2.00419528


DFT components:
N(Alpha)           :        4.999999154825 electrons
N(Beta)            :        4.000000815950 electrons
N(Total)           :        8.999999970776 electrons
E(XC)              :       -4.316062170760 Eh       
DFET-embed. en.    :        0.000000000000 Eh       

---------------
SCF CONVERGENCE
---------------

  Last Energy change         ...   -9.6634e-12  Tolerance :   1.0000e-08
  Last MAX-Density change    ...    0.0000e+00  Tolerance :   1.0000e-07
  Last RMS-Density change    ...    0.0000e+00  Tolerance :   5.0000e-09
  Last DIIS Error            ...    1.2935e-06  Tolerance :   5.0000e-07

             **** THE GBW FILE WAS UPDATED (/beegfs/scratch/ispackman/PFAS_EPR_calcs/benchmark/JChemEd_CF3_radical/CH3_radical_107.0_degrees_IN-PROGRESS/CH3_radical_107.0_degrees.gbw) ****
             **** DENSITY /beegfs/scratch/ispackman/PFAS_EPR_calcs/benchmark/JChemEd_CF3_radical/CH3_radical_107.0_degrees_IN-PROGRESS/CH3_radical_107.0_degrees.scfp WAS UPDATED ****
             **** ENERGY FILE WAS UPDATED (/beegfs/scratch/ispackman/PFAS_EPR_calcs/benchmark/JChemEd_CF3_radical/CH3_radical_107.0_degrees_IN-PROGRESS/CH3_radical_107.0_degrees.en.tmp) ****
----------------------
UHF SPIN CONTAMINATION
----------------------

Warning: in a DFT calculation there is little theoretical justification to 
         calculate <S**2> as in Hartree-Fock theory. We will do it anyways
         but you should keep in mind that the values have only limited relevance

Expectation value of <S**2>     :     0.752947
Ideal value S*(S+1) for S=0.5   :     0.750000
Deviation                       :     0.002947

             **** THE GBW FILE WAS UPDATED (/beegfs/scratch/ispackman/PFAS_EPR_calcs/benchmark/JChemEd_CF3_radical/CH3_radical_107.0_degrees_IN-PROGRESS/CH3_radical_107.0_degrees.gbw) ****
             **** DENSITY /beegfs/scratch/ispackman/PFAS_EPR_calcs/benchmark/JChemEd_CF3_radical/CH3_radical_107.0_degrees_IN-PROGRESS/CH3_radical_107.0_degrees.scfp WAS UPDATED ****
----------------
ORBITAL ENERGIES
----------------
                 SPIN UP ORBITALS
  NO   OCC          E(Eh)            E(eV) 
   0   1.0000     -10.291536      -280.0469 
   1   1.0000      -0.812918       -22.1206 
   2   1.0000      -0.504875       -13.7383 
   3   1.0000      -0.504848       -13.7376 
   4   1.0000      -0.366345        -9.9688 
   5   0.0000       0.075977         2.0675 
   6   0.0000       0.161556         4.3962 
   7   0.0000       0.161565         4.3964 
   8   0.0000       0.190720         5.1898 
   9   0.0000       0.195758         5.3268 
  10   0.0000       0.195758         5.3269 
  11   0.0000       0.225651         6.1403 
  12   0.0000       0.253821         6.9068 
  13   0.0000       0.253825         6.9069 
  14   0.0000       0.313695         8.5361 
  15   0.0000       0.357118         9.7177 
  16   0.0000       0.357129         9.7180 
  17   0.0000       0.365548         9.9471 
  18   0.0000       0.375500        10.2179 
  19   0.0000       0.384973        10.4757 
  20   0.0000       0.384977        10.4758 
  21   0.0000       0.408537        11.1169 
  22   0.0000       0.408545        11.1171 
  23   0.0000       0.529332        14.4038 
  24   0.0000       0.555159        15.1066 
  25   0.0000       0.555165        15.1068 
  26   0.0000       0.577553        15.7160 
  27   0.0000       0.782524        21.2935 
  28   0.0000       0.794732        21.6258 
  29   0.0000       0.794736        21.6259 
  30   0.0000       0.874612        23.7994 
  31   0.0000       0.874614        23.7994 
  32   0.0000       0.996875        27.1264 
  33   0.0000       1.146137        31.1880 
  34   0.0000       1.146161        31.1886 
  35   0.0000       1.632929        44.4342 
  36   0.0000       1.724036        46.9134 
  37   0.0000       1.752624        47.6913 
  38   0.0000       1.752658        47.6922 
  39   0.0000       1.767715        48.1020 
  40   0.0000       1.929105        52.4936 
  41   0.0000       1.929149        52.4948 
  42   0.0000       2.194002        59.7018 
  43   0.0000       2.275189        61.9110 
  44   0.0000       2.296369        62.4874 
  45   0.0000       2.296453        62.4897 
  46   0.0000       2.580499        70.2189 
  47   0.0000       2.580500        70.2190 
  48   0.0000       2.722328        74.0783 
  49   0.0000       2.722367        74.0794 
  50   0.0000       2.867818        78.0373 
  51   0.0000       3.004497        81.7565 
  52   0.0000       3.159705        85.9800 
  53   0.0000       3.159771        85.9817 
  54   0.0000       3.283435        89.3468 
  55   0.0000       3.283459        89.3475 
  56   0.0000       3.419054        93.0372 
  57   0.0000       3.476609        94.6033 
  58   0.0000       3.666980        99.7836 
  59   0.0000       3.667016        99.7846 
  60   0.0000       4.421848       120.3246 
  61   0.0000       4.422014       120.3291 
  62   0.0000       4.521384       123.0331 
  63   0.0000      22.189940       603.8190 

                 SPIN DOWN ORBITALS
  NO   OCC          E(Eh)            E(eV) 
   0   1.0000     -10.280494      -279.7465 
   1   1.0000      -0.774286       -21.0694 
   2   1.0000      -0.490339       -13.3428 
   3   1.0000      -0.490300       -13.3417 
   4   0.0000      -0.017780        -0.4838 
   5   0.0000       0.085055         2.3145 
   6   0.0000       0.166351         4.5266 
   7   0.0000       0.166355         4.5267 
   8   0.0000       0.200286         5.4500 
   9   0.0000       0.200289         5.4501 
  10   0.0000       0.228489         6.2175 
  11   0.0000       0.241118         6.5612 
  12   0.0000       0.258638         7.0379 
  13   0.0000       0.258639         7.0379 
  14   0.0000       0.324789         8.8380 
  15   0.0000       0.369818        10.0633 
  16   0.0000       0.369826        10.0635 
  17   0.0000       0.374400        10.1879 
  18   0.0000       0.375474        10.2172 
  19   0.0000       0.392400        10.6777 
  20   0.0000       0.392401        10.6778 
  21   0.0000       0.418007        11.3745 
  22   0.0000       0.418007        11.3746 
  23   0.0000       0.558141        15.1878 
  24   0.0000       0.558147        15.1879 
  25   0.0000       0.560951        15.2643 
  26   0.0000       0.589539        16.0422 
  27   0.0000       0.791405        21.5352 
  28   0.0000       0.805689        21.9239 
  29   0.0000       0.805691        21.9240 
  30   0.0000       0.898402        24.4468 
  31   0.0000       0.898409        24.4470 
  32   0.0000       1.017714        27.6934 
  33   0.0000       1.154921        31.4270 
  34   0.0000       1.154948        31.4277 
  35   0.0000       1.698858        46.2283 
  36   0.0000       1.725009        46.9399 
  37   0.0000       1.761598        47.9355 
  38   0.0000       1.761635        47.9365 
  39   0.0000       1.783698        48.5369 
  40   0.0000       1.945341        52.9354 
  41   0.0000       1.945382        52.9365 
  42   0.0000       2.200318        59.8737 
  43   0.0000       2.287628        62.2495 
  44   0.0000       2.308035        62.8048 
  45   0.0000       2.308043        62.8050 
  46   0.0000       2.585778        70.3626 
  47   0.0000       2.585820        70.3637 
  48   0.0000       2.743692        74.6596 
  49   0.0000       2.743712        74.6602 
  50   0.0000       2.895028        78.7777 
  51   0.0000       3.050231        83.0010 
  52   0.0000       3.209136        87.3250 
  53   0.0000       3.209164        87.3258 
  54   0.0000       3.319354        90.3242 
  55   0.0000       3.319372        90.3247 
  56   0.0000       3.437829        93.5481 
  57   0.0000       3.511928        95.5644 
  58   0.0000       3.710115       100.9574 
  59   0.0000       3.710158       100.9585 
  60   0.0000       4.443692       120.9190 
  61   0.0000       4.443740       120.9203 
  62   0.0000       4.546850       123.7261 
  63   0.0000      22.210110       604.3678 

                    ********************************
                    * MULLIKEN POPULATION ANALYSIS *
                    ********************************

--------------------------------------------
MULLIKEN ATOMIC CHARGES AND SPIN POPULATIONS
--------------------------------------------
   0 C :   -0.700621    0.881999
   1 H :    0.233247    0.039288
   2 H :    0.233687    0.039357
   3 H :    0.233687    0.039357
Sum of atomic charges         :   -0.0000000
Sum of atomic spin populations:    1.0000000

-----------------------------------------------------
MULLIKEN REDUCED ORBITAL CHARGES AND SPIN POPULATIONS
-----------------------------------------------------
CHARGE
  0 C s       :     3.360484  s :     3.360484
      pz      :     0.937146  p :     3.295258
      px      :     1.178971
      py      :     1.179140
      dz2     :     0.001214  d :     0.043916
      dxz     :     0.012579
      dyz     :     0.012603
      dx2y2   :     0.008748
      dxy     :     0.008773
      f0      :     0.000436  f :     0.000963
      f+1     :     0.000071
      f-1     :     0.000070
      f+2     :    -0.000103
      f-2     :    -0.000099
      f+3     :     0.000588
      f-3     :     0.000000
  1 H s       :     0.720355  s :     0.720355
      pz      :     0.022766  p :     0.046398
      px      :     0.020640
      py      :     0.002993
  2 H s       :     0.720047  s :     0.720047
      pz      :     0.022678  p :     0.046266
      px      :     0.007394
      py      :     0.016193
  3 H s       :     0.720049  s :     0.720049
      pz      :     0.022678  p :     0.046264
      px      :     0.007394
      py      :     0.016192

SPIN
  0 C s       :     0.006464  s :     0.006464
      pz      :     0.873399  p :     0.884490
      px      :     0.005560
      py      :     0.005530
      dz2     :    -0.001687  d :    -0.008072
      dxz     :    -0.003077
      dyz     :    -0.003080
      dx2y2   :    -0.000113
      dxy     :    -0.000115
      f0      :    -0.000387  f :    -0.000883
      f+1     :    -0.000160
      f-1     :    -0.000160
      f+2     :    -0.000018
      f-2     :    -0.000018
      f+3     :    -0.000141
      f-3     :     0.000000
  1 H s       :     0.014865  s :     0.014865
      pz      :     0.020395  p :     0.024423
      px      :     0.000959
      py      :     0.003068
  2 H s       :     0.015000  s :     0.015000
      pz      :     0.020325  p :     0.024357
      px      :     0.002543
      py      :     0.001488
  3 H s       :     0.015000  s :     0.015000
      pz      :     0.020325  p :     0.024357
      px      :     0.002543
      py      :     0.001488


                     *******************************
                     * LOEWDIN POPULATION ANALYSIS *
                     *******************************

-------------------------------------------
LOEWDIN ATOMIC CHARGES AND SPIN POPULATIONS
-------------------------------------------
   0 C :    0.057932    0.833955
   1 H :   -0.019335    0.055352
   2 H :   -0.019298    0.055347
   3 H :   -0.019298    0.055347

----------------------------------------------------
LOEWDIN REDUCED ORBITAL CHARGES AND SPIN POPULATIONS
----------------------------------------------------
CHARGE
  0 C s       :     2.911507  s :     2.911507
      pz      :     0.774092  p :     2.901990
      px      :     1.063960
      py      :     1.063937
      dz2     :     0.006974  d :     0.118192
      dxz     :     0.020718
      dyz     :     0.020724
      dx2y2   :     0.034884
      dxy     :     0.034892
      f0      :     0.001278  f :     0.010379
      f+1     :     0.000165
      f-1     :     0.000164
      f+2     :     0.002926
      f-2     :     0.002929
      f+3     :     0.002917
      f-3     :     0.000000
  1 H s       :     0.756926  s :     0.756926
      pz      :     0.068766  p :     0.262409
      px      :     0.122400
      py      :     0.071243
  2 H s       :     0.756910  s :     0.756910
      pz      :     0.068747  p :     0.262389
      px      :     0.084021
      py      :     0.109621
  3 H s       :     0.756910  s :     0.756910
      pz      :     0.068747  p :     0.262389
      px      :     0.084021
      py      :     0.109621

SPIN
  0 C s       :     0.083217  s :     0.083217
      pz      :     0.724178  p :     0.759491
      px      :     0.017656
      py      :     0.017658
      dz2     :     0.000470  d :    -0.008252
      dxz     :    -0.002595
      dyz     :    -0.002596
      dx2y2   :    -0.001765
      dxy     :    -0.001765
      f0      :    -0.000227  f :    -0.000501
      f+1     :    -0.000113
      f-1     :    -0.000113
      f+2     :    -0.000149
      f-2     :    -0.000149
      f+3     :     0.000250
      f-3     :     0.000000
  1 H s       :    -0.004537  s :    -0.004537
      pz      :     0.057492  p :     0.059888
      px      :     0.003118
      py      :    -0.000722
  2 H s       :    -0.004538  s :    -0.004538
      pz      :     0.057488  p :     0.059885
      px      :     0.000240
      py      :     0.002157
  3 H s       :    -0.004538  s :    -0.004538
      pz      :     0.057488  p :     0.059885
      px      :     0.000240
      py      :     0.002157


                      *****************************
                      * MAYER POPULATION ANALYSIS *
                      *****************************

  NA   - Mulliken gross atomic population
  ZA   - Total nuclear charge
  QA   - Mulliken gross atomic charge
  VA   - Mayer's total valence
  BVA  - Mayer's bonded valence
  FA   - Mayer's free valence

  ATOM       NA         ZA         QA         VA         BVA        FA
  0 C      6.7006     6.0000    -0.7006     3.7934     2.9896     0.8038
  1 H      0.7668     1.0000     0.2332     1.0124     1.0111     0.0014
  2 H      0.7663     1.0000     0.2337     1.0118     1.0105     0.0014
  3 H      0.7663     1.0000     0.2337     1.0118     1.0105     0.0014

  Mayer bond orders larger than 0.100000
B(  0-C ,  1-H ) :   0.9969 B(  0-C ,  2-H ) :   0.9964 B(  0-C ,  3-H ) :   0.9963 


-------
TIMINGS
-------

Total SCF time: 0 days 0 hours 0 min 16 sec 

Total time                  ....      16.467 sec
Sum of individual times     ....      14.528 sec  ( 88.2%)

Fock matrix formation       ....      11.488 sec  ( 69.8%)
  Split-RI-J                ....       0.987 sec  (  8.6% of F)
  Chain of spheres X        ....       1.454 sec  ( 12.7% of F)
  XC integration            ....       2.284 sec  ( 19.9% of F)
    Basis function eval.    ....       0.052 sec  (  2.3% of XC)
    Density eval.           ....       0.067 sec  (  3.0% of XC)
    XC-Functional eval.     ....       0.064 sec  (  2.8% of XC)
    XC-Potential eval.      ....       0.075 sec  (  3.3% of XC)
Diagonalization             ....       0.230 sec  (  1.4%)
Density matrix formation    ....       0.007 sec  (  0.0%)
Population analysis         ....       0.429 sec  (  2.6%)
Initial guess               ....       0.241 sec  (  1.5%)
Orbital Transformation      ....       0.000 sec  (  0.0%)
Orbital Orthonormalization  ....       0.000 sec  (  0.0%)
DIIS solution               ....       1.217 sec  (  7.4%)
Grid generation             ....       0.916 sec  (  5.6%)

Maximum memory used throughout the entire SCF-calculation: 58.5 MB


-------------------------------------------------------------------------------
                          DFT DISPERSION CORRECTION                            
                                                                               
                              DFTD3 V3.1  Rev 1                                
                              USING zero damping                               
-------------------------------------------------------------------------------
The omegaB97X-D3 functional is recognized. Fit by Chai et al.
Active option DFTDOPT                   ...         3   

molecular C6(AA) [au] = 106.960319 


            DFT-D V3
 parameters
 s6 scaling factor         :     1.0000 
 rs6 scaling factor        :     1.2810 
 s8 scaling factor         :     1.0000 
 rs8 scaling factor        :     1.0940 
 Damping factor alpha6     :    14.0000 
 Damping factor alpha8     :    16.0000 
 ad hoc parameters k1-k3   :    16.0000     1.3333    -4.0000 

 Edisp/kcal,au: -0.006429503242  -0.000010246065 
 E6   /kcal   :  -0.001001367 
 E8   /kcal   :  -0.005428136 
 % E8         :  84.425441286 

-------------------------   ----------------
Dispersion correction           -0.000010246
-------------------------   ----------------


-------------------------   --------------------
FINAL SINGLE POINT ENERGY       -39.823864977714
-------------------------   --------------------



           ************************************************************
           *        Program running with 18 parallel MPI-processes    *
           *              working on a common directory               *
           ************************************************************
------------------------------------------------------------------------------
                         ORCA SCF GRADIENT CALCULATION
------------------------------------------------------------------------------

 ... reading COSX grid (gridx3)
Gradient of the Kohn-Sham DFT energy:
Kohn-Sham wavefunction type      ... UKS
Hartree-Fock exchange scaling    ...    0.196
Number of operators              ...    2
Number of atoms                  ...    4
Basis set dimensions             ...   64
Integral neglect threshold       ... 2.5e-11
Integral primitive cutoff        ... 2.5e-12
SHARK Integral package           ... ON

Nuc. rep. gradient       (SHARK) ... done (  0.0 sec)
HCore & Overlap gradient (SHARK) ... done (  0.0 sec)
RI-J gradient            (SHARK) ... done (  0.1 sec)
COSX-gradient                    ... done (  0.1 sec)
Exchange-correlation gradient    ... done
Dispersion correction            ... done

------------------
CARTESIAN GRADIENT
------------------

WARNING: THERE ARE 3 CONSTRAINED CARTESIAN COORDINATES
   1   C   :    0.000057050    0.000000025    0.044557709
   2   H   :   -0.014332751    0.000000002   -0.014852801
   3   H   :    0.007116827   -0.012480697   -0.014869529
   4   H   :    0.007116818    0.012480697   -0.014869552

Difference to translation invariance:
           :   -0.0000420553    0.0000000261   -0.0000341732

Difference to rotation invariance:
           :    0.0000000397    0.0000435416   -0.0000000110

Norm of the cartesian gradient     ...    0.0571530101
RMS gradient                       ...    0.0164986529
MAX gradient                       ...    0.0445577092

-------
TIMINGS
-------

Total SCF gradient time            ...        0.776 sec

One electron gradient       ....       0.006 sec  (  0.8%)
RI-J Coulomb gradient       ....       0.133 sec  ( 17.2%)
COSX gradient               ....       0.129 sec  ( 16.6%)
XC gradient                 ....       0.066 sec  (  8.5%)

Maximum memory used throughout the entire SCFGRAD-calculation: 33.6 MB
------------------------------------------------------------------------------
                         ORCA GEOMETRY RELAXATION STEP
------------------------------------------------------------------------------

Reading the OPT-File                    .... done
Getting information on internals        .... done
Copying old internal coords+grads       .... done
Making the new internal coordinates     .... (new redundants).... done
Validating the new internal coordinates .... (new redundants).... done
Calculating the B-matrix                .... done
Calculating the G,G- and P matrices     .... done
Transforming gradient to internals      .... done
Projecting the internal gradient        .... done
Number of atoms                         ....   4
Number of internal coordinates          ....   7
Current Energy                          ....   -39.823864978 Eh
Current gradient norm                   ....     0.057153010 Eh/bohr
Maximum allowed component of the step   ....  0.300
Current trust radius                    ....  0.300
Evaluating the initial hessian          ....  (Almloef) done
Projecting the Hessian                  .... done
Forming the augmented Hessian           .... done
Diagonalizing the augmented Hessian     .... done
Last element of RFO vector              ....  0.999348726
Lowest eigenvalues of augmented Hessian:
 -0.000487711  0.373574723  0.373574723  0.374062434 1000.000000000
Length of the computed step             ....  0.036108478
The final length of the internal step   ....  0.036108478
Converting the step to cartesian space:
 Initial RMS(Int)=    0.0136477217
Transforming coordinates:
 Iter   0:  RMS(Cart)=    0.0098677295 RMS(Int)=    0.0136477218
 Iter   1:  RMS(Cart)=    0.0000000001 RMS(Int)=    0.0000000002
Imposing constraints:
 Iter   0:  RMS(Cart)=    0.0000000001 RMS(Int)=    0.0000000002
CONVERGED
done
Storing new coordinates                 .... done

                                .--------------------.
          ----------------------|Geometry convergence|-------------------------
          Item                value                   Tolerance       Converged
          ---------------------------------------------------------------------
          RMS gradient        0.0051051000            0.0001000000      NO
          MAX gradient        0.0078106725            0.0003000000      NO
          RMS step            0.0136477217            0.0020000000      NO
          MAX step            0.0208806654            0.0040000000      NO
          ........................................................
          Max(Bonds)      0.0110      Max(Angles)    0.00
          Max(Dihed)        0.00      Max(Improp)    0.00
          ---------------------------------------------------------------------

The optimization has not yet converged - more geometry cycles are needed


    ---------------------------------------------------------------------------
                         Redundant Internal Coordinates
                            (Angstroem and degrees)

        Definition                    Value    dE/dq     Step     New-Value
    ----------------------------------------------------------------------------
     1. B(H   1,C   0)                1.0800 -0.007773  0.0110    1.0910   
     2. B(H   2,C   0)                1.0800 -0.007811  0.0110    1.0910   
     3. B(H   3,C   0)                1.0800 -0.007811  0.0110    1.0910   
     4. A(H   2,C   0,H   3)          107.00 -0.025411    0.00    107.00 C 
     5. A(H   1,C   0,H   2)          107.00 -0.009999   -0.00    107.00 C 
     6. A(H   1,C   0,H   3)          107.00 -0.009999   -0.00    107.00 C 
     7. I(H   1,H   3,H   2,C   0)     60.56  0.028151   -0.00     60.56   
    ----------------------------------------------------------------------------

         *************************************************************
         *                GEOMETRY OPTIMIZATION CYCLE   2            *
         *************************************************************
---------------------------------
CARTESIAN COORDINATES (ANGSTROEM)
---------------------------------
  C      0.000015   -0.000000    0.003078
  H      1.012690   -0.000000   -0.402833
  H     -0.506352    0.877048   -0.402839
  H     -0.506352   -0.877048   -0.402839

----------------------------
CARTESIAN COORDINATES (A.U.)
----------------------------
  NO LB      ZA    FRAG     MASS         X           Y           Z
   0 C     6.0000    0    12.011    0.000028   -0.000000    0.005817
   1 H     1.0000    0     1.008    1.913706   -0.000000   -0.761243
   2 H     1.0000    0     1.008   -0.956867    1.657380   -0.761255
   3 H     1.0000    0     1.008   -0.956867   -1.657380   -0.761255

--------------------------------
INTERNAL COORDINATES (ANGSTROEM)
--------------------------------
 C      0   0   0     0.000000000000     0.00000000     0.00000000
 H      1   0   0     1.090996449317     0.00000000     0.00000000
 H      1   2   0     1.091049572260   107.00000001     0.00000000
 H      1   2   3     1.091049544943   107.00000001   114.40420742

---------------------------
INTERNAL COORDINATES (A.U.)
---------------------------
 C      0   0   0     0.000000000000     0.00000000     0.00000000
 H      1   0   0     2.061684502290     0.00000000     0.00000000
 H      1   2   0     2.061784890104   107.00000001     0.00000000
 H      1   2   3     2.061784838481   107.00000001   114.40420742



           ************************************************************
           *        Program running with 18 parallel MPI-processes    *
           *              working on a common directory               *
           ************************************************************
------------------------------------------------------------------------------
                   ___                                                        
                  /   \      - P O W E R E D   B Y -                         
                 /     \                                                     
                 |  |  |   _    _      __       _____    __    __             
                 |  |  |  | |  | |    /  \     |  _  \  |  |  /  |          
                  \  \/   | |  | |   /    \    | | | |  |  | /  /          
                 / \  \   | |__| |  /  /\  \   | |_| |  |  |/  /          
                |  |  |   |  __  | /  /__\  \  |    /   |      \           
                |  |  |   | |  | | |   __   |  |    \   |  |\   \          
                \     /   | |  | | |  |  |  |  | |\  \  |  | \   \       
                 \___/    |_|  |_| |__|  |__|  |_| \__\ |__|  \__/        
                                                                              
                      - O R C A' S   B I G   F R I E N D -                    
                                      &                                       
                       - I N T E G R A L  F E E D E R -                       
                                                                              
 v1 FN, 2020, v2 2021                                                         
------------------------------------------------------------------------------


Reading SHARK input file /beegfs/scratch/ispackman/PFAS_EPR_calcs/benchmark/JChemEd_CF3_radical/CH3_radical_107.0_degrees_IN-PROGRESS/CH3_radical_107.0_degrees.SHARKINP.tmp ... ok
----------------------
SHARK INTEGRAL PACKAGE
----------------------

Number of atoms                             ...      4
Number of basis functions                   ...     64
Number of shells                            ...     28
Maximum angular momentum                    ...      3
Integral batch strategy                     ... SHARK/LIBINT Hybrid
RI-J (if used) integral strategy            ... SPLIT-RIJ (Revised 2003 algorithm where possible)
Printlevel                                  ...      1
Contraction scheme used                     ... SEGMENTED contraction
Coulomb Range Separation                    ... NOT USED
Exchange Range Separation                   ... Long Range
   Mu parameter                             ...  0.250000
   Scaling (regular/separated)              ...  0.195728  0.804272
Finite Nucleus Model                        ... NOT USED
Auxiliary Coulomb fitting basis             ... AVAILABLE
   # of basis functions in Aux-J            ...     82
   # of shells in Aux-J                     ...     30
   Maximum angular momentum in Aux-J        ...      4
Auxiliary J/K fitting basis                 ... NOT available
Auxiliary Correlation fitting basis         ... NOT available
Auxiliary 'external' fitting basis          ... NOT available
Integral threshold                          ...     2.500000e-11
Primitive cut-off                           ...     2.500000e-12
Primitive pair pre-selection threshold      ...     2.500000e-12

Calculating pre-screening integrals         ... done (  0.0 sec) Dimension = 28
Organizing shell pair data                  ... done (  0.0 sec)
Shell pair information
Total number of shell pairs                 ...       406
Shell pairs after pre-screening             ...       406
Total number of primitive shell pairs       ...       977
Primitive shell pairs kept                  ...       944
          la=0 lb=0:    120 shell pairs
          la=1 lb=0:    135 shell pairs
          la=1 lb=1:     45 shell pairs
          la=2 lb=0:     45 shell pairs
          la=2 lb=1:     27 shell pairs
          la=2 lb=2:      6 shell pairs
          la=3 lb=0:     15 shell pairs
          la=3 lb=1:      9 shell pairs
          la=3 lb=2:      3 shell pairs
          la=3 lb=3:      1 shell pairs

Calculating one electron integrals          ... done (  0.0 sec)
Calculating RI/J V-Matrix + Cholesky decomp.... done (  0.2 sec)
Calculating Nuclear repulsion               ... done (  0.0 sec) ENN=      9.635499102491 Eh

SHARK setup successfully completed in   0.7 seconds

Maximum memory used throughout the entire GTOINT-calculation: 14.0 MB


           ************************************************************
           *        Program running with 18 parallel MPI-processes    *
           *              working on a common directory               *
           ************************************************************

Diagonalization of the overlap matrix:
Smallest eigenvalue                        ... 5.249e-05
Time for diagonalization                   ...    0.002 sec
Threshold for overlap eigenvalues          ... 1.000e-08
Number of eigenvalues below threshold      ... 0
Time for construction of square roots      ...    0.080 sec
Total time needed                          ...    0.083 sec

-------------------
DFT GRID GENERATION
-------------------

General Integration Accuracy     IntAcc      ... 4.388
Radial Grid Type                 RadialGrid  ... OptM3 with GC (2021)
Angular Grid (max. ang.)         AngularGrid ... 4 (Lebedev-302)
Angular grid pruning method      GridPruning ... 4 (adaptive)
Weight generation scheme         WeightScheme... Becke
Basis function cutoff            BFCut       ... 1.0000e-11
Integration weight cutoff        WCut        ... 1.0000e-14
Angular grids for H and He will be reduced by one unit
Partially contracted basis set               ... off
Rotationally invariant grid construction     ... off

Total number of grid points                  ...    17055
Total number of batches                      ...      269
Average number of points per batch           ...       63
Average number of grid points per atom       ...     4264
Time for grid setup =    0.153 sec

--------------------
COSX GRID GENERATION
--------------------

GRIDX 1
-------
General Integration Accuracy     IntAcc      ... 3.816
Radial Grid Type                 RadialGrid  ... OptM3 with GC (2021)
Angular Grid (max. ang.)         AngularGrid ... 1 (Lebedev-50)
Angular grid pruning method      GridPruning ... 4 (adaptive)
Weight generation scheme         WeightScheme... Becke
Basis function cutoff            BFCut       ... 1.0000e-11
Integration weight cutoff        WCut        ... 1.0000e-14
Angular grids for H and He will be reduced by one unit
Partially contracted basis set               ... on
Rotationally invariant grid construction     ... off

Total number of grid points                  ...     2151
Total number of batches                      ...       36
Average number of points per batch           ...       59
Average number of grid points per atom       ...      538
UseSFitting                                  ... on

GRIDX 2
-------
General Integration Accuracy     IntAcc      ... 4.020
Radial Grid Type                 RadialGrid  ... OptM3 with GC (2021)
Angular Grid (max. ang.)         AngularGrid ... 2 (Lebedev-110)
Angular grid pruning method      GridPruning ... 4 (adaptive)
Weight generation scheme         WeightScheme... Becke
Basis function cutoff            BFCut       ... 1.0000e-11
Integration weight cutoff        WCut        ... 1.0000e-14
Angular grids for H and He will be reduced by one unit
Partially contracted basis set               ... on
Rotationally invariant grid construction     ... off

Total number of grid points                  ...     5042
Total number of batches                      ...       81
Average number of points per batch           ...       62
Average number of grid points per atom       ...     1260
UseSFitting                                  ... on

GRIDX 3
-------
General Integration Accuracy     IntAcc      ... 4.338
Radial Grid Type                 RadialGrid  ... OptM3 with GC (2021)
Angular Grid (max. ang.)         AngularGrid ... 3 (Lebedev-194)
Angular grid pruning method      GridPruning ... 4 (adaptive)
Weight generation scheme         WeightScheme... Becke
Basis function cutoff            BFCut       ... 1.0000e-11
Integration weight cutoff        WCut        ... 1.0000e-14
Angular grids for H and He will be reduced by one unit
Partially contracted basis set               ... on
Rotationally invariant grid construction     ... off

Total number of grid points                  ...    11715
Total number of batches                      ...      185
Average number of points per batch           ...       63
Average number of grid points per atom       ...     2929
UseSFitting                                  ... on

Time for X-Grid setup             =    0.676 sec

--------------
SCF ITERATIONS
--------------
ITER       Energy         Delta-E        Max-DP      RMS-DP      [F,P]     Damp
               ***  Starting incremental Fock matrix formation  ***
  0    -39.8240264426   0.000000000000 0.00481859  0.00008800  0.0028028 0.7000
  1    -39.8240489071  -0.000022464459 0.00425467  0.00007679  0.0019027 0.7000
                               ***Turning on DIIS***
  2    -39.8240639516  -0.000015044486 0.01116891  0.00019979  0.0012792 0.0000
  3    -39.8240970681  -0.000033116565 0.00294700  0.00005324  0.0005469 0.0000
               *** Restarting incremental Fock matrix formation ***
                                   *** Resetting DIIS ***
  4    -39.8240986120  -0.000001543856 0.00027940  0.00000961  0.0002350 0.0000
  5    -39.8240988716  -0.000000259611 0.00027720  0.00000557  0.0001457 0.0000
  6    -39.8240989752  -0.000000103559 0.00005599  0.00000223  0.0000279 0.0000
                 **** Energy Check signals convergence ****

               *****************************************************
               *                     SUCCESS                       *
               *           SCF CONVERGED AFTER   7 CYCLES          *
               *****************************************************

Old exchange energy                            =     -2.170893648 Eh
New exchange energy                            =     -2.170898160 Eh
Exchange energy change after final integration =     -0.000004512 Eh
Total energy after final integration           =    -39.824103498 Eh
Final COS-X integration done in                =     0.135 sec
Total Energy       :          -39.82410350 Eh           -1083.66895 eV
  Last Energy change         ...   -9.9761e-09  Tolerance :   1.0000e-08
  Last MAX-Density change    ...    0.0000e+00  Tolerance :   1.0000e-07
             **** THE GBW FILE WAS UPDATED (/beegfs/scratch/ispackman/PFAS_EPR_calcs/benchmark/JChemEd_CF3_radical/CH3_radical_107.0_degrees_IN-PROGRESS/CH3_radical_107.0_degrees.gbw) ****
             **** DENSITY /beegfs/scratch/ispackman/PFAS_EPR_calcs/benchmark/JChemEd_CF3_radical/CH3_radical_107.0_degrees_IN-PROGRESS/CH3_radical_107.0_degrees.scfp WAS UPDATED ****
             **** ENERGY FILE WAS UPDATED (/beegfs/scratch/ispackman/PFAS_EPR_calcs/benchmark/JChemEd_CF3_radical/CH3_radical_107.0_degrees_IN-PROGRESS/CH3_radical_107.0_degrees.en.tmp) ****
----------------------
UHF SPIN CONTAMINATION
----------------------

Warning: in a DFT calculation there is little theoretical justification to 
         calculate <S**2> as in Hartree-Fock theory. We will do it anyways
         but you should keep in mind that the values have only limited relevance

Expectation value of <S**2>     :     0.753017
Ideal value S*(S+1) for S=0.5   :     0.750000
Deviation                       :     0.003017

             **** THE GBW FILE WAS UPDATED (/beegfs/scratch/ispackman/PFAS_EPR_calcs/benchmark/JChemEd_CF3_radical/CH3_radical_107.0_degrees_IN-PROGRESS/CH3_radical_107.0_degrees.gbw) ****
             **** DENSITY /beegfs/scratch/ispackman/PFAS_EPR_calcs/benchmark/JChemEd_CF3_radical/CH3_radical_107.0_degrees_IN-PROGRESS/CH3_radical_107.0_degrees.scfp WAS UPDATED ****
Total SCF time: 0 days 0 hours 0 min 12 sec 

Maximum memory used throughout the entire SCF-calculation: 58.5 MB


-------------------------------------------------------------------------------
                          DFT DISPERSION CORRECTION                            
                                                                               
                              DFTD3 V3.1  Rev 1                                
                              USING zero damping                               
-------------------------------------------------------------------------------
-------------------------   ----------------
Dispersion correction           -0.000011115
-------------------------   ----------------


-------------------------   --------------------
FINAL SINGLE POINT ENERGY       -39.824114612267
-------------------------   --------------------



           ************************************************************
           *        Program running with 18 parallel MPI-processes    *
           *              working on a common directory               *
           ************************************************************
------------------------------------------------------------------------------
                         ORCA SCF GRADIENT CALCULATION
------------------------------------------------------------------------------

 ... reading COSX grid (gridx3)
Gradient of the Kohn-Sham DFT energy:
Kohn-Sham wavefunction type      ... UKS
Hartree-Fock exchange scaling    ...    0.196
Number of operators              ...    2
Number of atoms                  ...    4
Basis set dimensions             ...   64
Integral neglect threshold       ... 2.5e-11
Integral primitive cutoff        ... 2.5e-12
SHARK Integral package           ... ON

Nuc. rep. gradient       (SHARK) ... done (  0.0 sec)
HCore & Overlap gradient (SHARK) ... done (  0.0 sec)
RI-J gradient            (SHARK) ... done (  0.2 sec)
COSX-gradient                    ... done (  0.1 sec)
Exchange-correlation gradient    ... done
Dispersion correction            ... done

------------------
CARTESIAN GRADIENT
------------------

WARNING: THERE ARE 3 CONSTRAINED CARTESIAN COORDINATES
   1   C   :    0.000093665   -0.000000044    0.051432396
   2   H   :   -0.007156274    0.000000011   -0.017138702
   3   H   :    0.003509414   -0.006231491   -0.017166258
   4   H   :    0.003509429    0.006231511   -0.017166252

Difference to translation invariance:
           :   -0.0000437666   -0.0000000138   -0.0000388167

Difference to rotation invariance:
           :    0.0000000119    0.0000504020    0.0000000271

Norm of the cartesian gradient     ...    0.0606786898
RMS gradient                       ...    0.0175164289
MAX gradient                       ...    0.0514323957

-------
TIMINGS
-------

Total SCF gradient time            ...        0.833 sec

One electron gradient       ....       0.007 sec  (  0.8%)
RI-J Coulomb gradient       ....       0.186 sec  ( 22.4%)
COSX gradient               ....       0.143 sec  ( 17.2%)
XC gradient                 ....       0.068 sec  (  8.1%)

Maximum memory used throughout the entire SCFGRAD-calculation: 33.6 MB
------------------------------------------------------------------------------
                         ORCA GEOMETRY RELAXATION STEP
------------------------------------------------------------------------------

Reading the OPT-File                    .... done
Getting information on internals        .... done
Copying old internal coords+grads       .... done
Making the new internal coordinates     .... (new redundants).... done
Validating the new internal coordinates .... (new redundants).... done
Calculating the B-matrix                .... done
Calculating the G,G- and P matrices     .... done
Transforming gradient to internals      .... done
Projecting the internal gradient        .... done
Number of atoms                         ....   4
Number of internal coordinates          ....   7
Current Energy                          ....   -39.824114612 Eh
Current gradient norm                   ....     0.060678690 Eh/bohr
Maximum allowed component of the step   ....  0.300
Current trust radius                    ....  0.300
Updating the Hessian (BFGS)             .... done
Forming the augmented Hessian           .... done
Diagonalizing the augmented Hessian     .... done
Last element of RFO vector              ....  0.999999225
Lowest eigenvalues of augmented Hessian:
 -0.000000560  0.361596472  0.373574723  0.373575438 1000.000000000
Length of the computed step             ....  0.001244852
The final length of the internal step   ....  0.001244852
Converting the step to cartesian space:
 Initial RMS(Int)=    0.0004705099
Transforming coordinates:
 Iter   0:  RMS(Cart)=    0.0003401922 RMS(Int)=    0.0004705099
 Iter   1:  RMS(Cart)=    0.0000000000 RMS(Int)=    0.0000000000
Imposing constraints:
 Iter   0:  RMS(Cart)=    0.0000000000 RMS(Int)=    0.0000000001
CONVERGED
done
Storing new coordinates                 .... done

                                .--------------------.
          ----------------------|Geometry convergence|-------------------------
          Item                value                   Tolerance       Converged
          ---------------------------------------------------------------------
          Energy change      -0.0002496346            0.0000050000      NO
          RMS gradient        0.0001701347            0.0001000000      NO
          MAX gradient        0.0002617322            0.0003000000      YES
          RMS step            0.0004705099            0.0020000000      YES
          MAX step            0.0007238337            0.0040000000      YES
          ........................................................
          Max(Bonds)      0.0004      Max(Angles)    0.00
          Max(Dihed)        0.00      Max(Improp)    0.00
          ---------------------------------------------------------------------

       The step convergence is overachieved with 
       reasonable convergence on the gradient
       Convergence will therefore be signaled now


                    ***********************HURRAY********************
                    ***        THE OPTIMIZATION HAS CONVERGED     ***
                    *************************************************


    ---------------------------------------------------------------------------
                         Redundant Internal Coordinates

                          --- Optimized Parameters ---  
                            (Angstroem and degrees)

        Definition                    OldVal   dE/dq     Step     FinalVal
    ----------------------------------------------------------------------------
     1. B(H   1,C   0)                1.0910 -0.000262  0.0004    1.0914   
     2. B(H   2,C   0)                1.0910 -0.000259  0.0004    1.0914   
     3. B(H   3,C   0)                1.0910 -0.000259  0.0004    1.0914   
     4. A(H   2,C   0,H   3)          107.00 -0.024931    0.00    107.00 C 
     5. A(H   1,C   0,H   2)          107.00 -0.009809    0.00    107.00 C 
     6. A(H   1,C   0,H   3)          107.00 -0.009809    0.00    107.00 C 
     7. I(H   1,H   3,H   2,C   0)     60.56  0.027617   -0.00     60.56   
    ----------------------------------------------------------------------------
                 *******************************************************
                 *** FINAL ENERGY EVALUATION AT THE STATIONARY POINT ***
                 ***               (AFTER    2 CYCLES)               ***
                 *******************************************************
---------------------------------
CARTESIAN COORDINATES (ANGSTROEM)
---------------------------------
  C      0.000014    0.000000    0.003184
  H      1.013044    0.000000   -0.402868
  H     -0.506529    0.877352   -0.402874
  H     -0.506529   -0.877352   -0.402874

----------------------------
CARTESIAN COORDINATES (A.U.)
----------------------------
  NO LB      ZA    FRAG     MASS         X           Y           Z
   0 C     6.0000    0    12.011    0.000026    0.000000    0.006018
   1 H     1.0000    0     1.008    1.914376    0.000000   -0.761311
   2 H     1.0000    0     1.008   -0.957201    1.657956   -0.761321
   3 H     1.0000    0     1.008   -0.957201   -1.657956   -0.761321

--------------------------------
INTERNAL COORDINATES (ANGSTROEM)
--------------------------------
 C      0   0   0     0.000000000000     0.00000000     0.00000000
 H      1   0   0     1.091379485600     0.00000000     0.00000000
 H      1   2   0     1.091428514422   107.00000001     0.00000000
 H      1   2   3     1.091428535925   107.00000001   114.40420743

---------------------------
INTERNAL COORDINATES (A.U.)
---------------------------
 C      0   0   0     0.000000000000     0.00000000     0.00000000
 H      1   0   0     2.062408335964     0.00000000     0.00000000
 H      1   2   0     2.062500987010   107.00000001     0.00000000
 H      1   2   3     2.062501027644   107.00000001   114.40420743

---------------------
BASIS SET INFORMATION
---------------------
There are 2 groups of distinct atoms

 Group   1 Type C   : 12s6p3d1f contracted to 6s3p3d1f pattern {621111/411/111/1}
 Group   2 Type H   : 5s2p contracted to 3s2p pattern {311/11}

Atom   0C    basis set group =>   1
Atom   1H    basis set group =>   2
Atom   2H    basis set group =>   2
Atom   3H    basis set group =>   2
---------------------------------
AUXILIARY/J BASIS SET INFORMATION
---------------------------------
There are 2 groups of distinct atoms

 Group   1 Type C   : 12s5p4d2f1g contracted to 6s4p3d1f1g pattern {711111/2111/211/2/1}
 Group   2 Type H   : 5s2p1d contracted to 3s1p1d pattern {311/2/1}

Atom   0C    basis set group =>   1
Atom   1H    basis set group =>   2
Atom   2H    basis set group =>   2
[...]

  NA   - Mulliken gross atomic population
  ZA   - Total nuclear charge
  QA   - Mulliken gross atomic charge
  VA   - Mayer's total valence
  BVA  - Mayer's bonded valence
  FA   - Mayer's free valence

  ATOM       NA         ZA         QA         VA         BVA        FA
  0 C      6.6891     6.0000    -0.6891     3.7974     2.9886     0.8089
  1 H      0.7706     1.0000     0.2294     1.0151     1.0138     0.0013
  2 H      0.7701     1.0000     0.2299     1.0145     1.0132     0.0013
  3 H      0.7701     1.0000     0.2299     1.0145     1.0132     0.0013

  Mayer bond orders larger than 0.100000
B(  0-C ,  1-H ) :   0.9966 B(  0-C ,  2-H ) :   0.9960 B(  0-C ,  3-H ) :   0.9960 


-------
TIMINGS
-------

Total SCF time: 0 days 0 hours 0 min 11 sec 

Total time                  ....      11.379 sec
Sum of individual times     ....       9.521 sec  ( 83.7%)

Fock matrix formation       ....       7.524 sec  ( 66.1%)
  Split-RI-J                ....       0.725 sec  (  9.6% of F)
  Chain of spheres X        ....       1.085 sec  ( 14.4% of F)
  XC integration            ....       1.480 sec  ( 19.7% of F)
    Basis function eval.    ....       0.029 sec  (  2.0% of XC)
    Density eval.           ....       0.040 sec  (  2.7% of XC)
    XC-Functional eval.     ....       0.038 sec  (  2.6% of XC)
    XC-Potential eval.      ....       0.039 sec  (  2.6% of XC)
Diagonalization             ....       0.161 sec  (  1.4%)
Density matrix formation    ....       0.011 sec  (  0.1%)
Population analysis         ....       0.409 sec  (  3.6%)
Initial guess               ....       0.008 sec  (  0.1%)
Orbital Transformation      ....       0.000 sec  (  0.0%)
Orbital Orthonormalization  ....       0.002 sec  (  0.0%)
DIIS solution               ....       0.530 sec  (  4.7%)
Grid generation             ....       0.878 sec  (  7.7%)

Maximum memory used throughout the entire SCF-calculation: 58.5 MB


-------------------------------------------------------------------------------
                          DFT DISPERSION CORRECTION                            
                                                                               
                              DFTD3 V3.1  Rev 1                                
                              USING zero damping                               
-------------------------------------------------------------------------------
The omegaB97X-D3 functional is recognized. Fit by Chai et al.
Active option DFTDOPT                   ...         3   

molecular C6(AA) [au] = 106.987884 


            DFT-D V3
 parameters
 s6 scaling factor         :     1.0000 
 rs6 scaling factor        :     1.2810 
 s8 scaling factor         :     1.0000 
 rs8 scaling factor        :     1.0940 
 Damping factor alpha6     :    14.0000 
 Damping factor alpha8     :    16.0000 
 ad hoc parameters k1-k3   :    16.0000     1.3333    -4.0000 

 Edisp/kcal,au: -0.006994040381  -0.000011145712 
 E6   /kcal   :  -0.001089429 
 E8   /kcal   :  -0.005904611 
 % E8         :  84.423460213 

-------------------------   ----------------
Dispersion correction           -0.000011146
-------------------------   ----------------


-------------------------   --------------------
FINAL SINGLE POINT ENERGY       -39.824114904758
-------------------------   --------------------

                                *** OPTIMIZATION RUN DONE ***

                            ***************************************
                            *     ORCA property calculations      *
                            ***************************************

                                    ---------------------
                                    Active property flags
                                    ---------------------
   (+) Dipole Moment


------------------------------------------------------------------------------
                       ORCA ELECTRIC PROPERTIES CALCULATION
------------------------------------------------------------------------------

Dipole Moment Calculation                       ... on
Quadrupole Moment Calculation                   ... off
Polarizability Calculation                      ... off
GBWName                                         ... /beegfs/scratch/ispackman/PFAS_EPR_calcs/benchmark/JChemEd_CF3_radical/CH3_radical_107.0_degrees_IN-PROGRESS/CH3_radical_107.0_degrees.gbw
Electron density                                ... /beegfs/scratch/ispackman/PFAS_EPR_calcs/benchmark/JChemEd_CF3_radical/CH3_radical_107.0_degrees_IN-PROGRESS/CH3_radical_107.0_degrees.scfp
The origin for moment calculation is the CENTER OF MASS  = ( 0.000019,  0.000000 -0.148317)

-------------
DIPOLE MOMENT
-------------
                                X             Y             Z
Electronic contribution:      0.00009      -0.00000       0.64720
Nuclear contribution   :     -0.00004      -0.00000      -0.91299
                        -----------------------------------------
Total Dipole Moment    :      0.00005      -0.00000      -0.26580
                        -----------------------------------------
Magnitude (a.u.)       :      0.26580
Magnitude (Debye)      :      0.67560



--------------------
Rotational spectrum 
--------------------
 
Rotational constants in cm-1:     8.644788     8.644376     5.431770 
Rotational constants in MHz : 259164.238741 259151.884175 162840.356169 

 Dipole components along the rotational axes: 
x,y,z [a.u.] :     0.000000     0.000046    -0.265796 
x,y,z [Debye]:     0.000000     0.000118    -0.675599 

 


           ************************************************************
           *        Program running with 18 parallel MPI-processes    *
           *              working on a common directory               *
           ************************************************************

-------------------------------------------------------------------------------
                               ORCA SCF HESSIAN
-------------------------------------------------------------------------------

                   --------- SHARK INITIALIZATION DONE ---------

Hessian of the Kohn-Sham DFT energy:
Kohn-Sham wavefunction type                      ... UKS
Hartree-Fock exchange scaling                    ...    0.196
Number of operators                              ...    2
Number of atoms                                  ...    4
Basis set dimensions                             ...   64
Integral neglect threshold                       ... 2.5e-11
Integral primitive cutoff                        ... 2.5e-12

Setting up DFT Hessian calculations              ... 

HESS GRID
---------

General Integration Accuracy     IntAcc      ... 4.629
Radial Grid Type                 RadialGrid  ... OptM3 with GC (2021)
Angular Grid (max. ang.)         AngularGrid ... 5 (Lebedev-434)
Angular grid pruning method      GridPruning ... 4 (adaptive)
Weight generation scheme         WeightScheme... Becke
Basis function cutoff            BFCut       ... 1.0000e-11
Integration weight cutoff        WCut        ... 1.0000e-14
Angular grids for H and He will be reduced by one unit
Partially contracted basis set               ... off
Rotationally invariant grid construction     ... off

Total number of grid points                  ...    27258
Total number of batches                      ...      428
Average number of points per batch           ...       63
Average number of grid points per atom       ...     6814

Building densities                               ... done   (      0.0 sec)
Calculating rho(r) on the grid                   ... done   (      0.1 sec)
Building xc-kernel on the grid                   ... done   (      0.1 sec)
                                                     done   (      0.5 sec)

Nuclear repulsion Hessian  (SHARK)               ... done   (      0.0 sec)

----------------------------------------------
Forming right-hand sides of CP-SCF equations     ...
----------------------------------------------
One electron integral derivatives  (SHARK)       ... done   (      0.0 sec)
Transforming the overlap derivative matrices     ... done   (      0.0 sec)
Making the Q(x) pseudodensities                  ... done   (      0.0 sec)
Adding the E*S(x)*S(y) terms to the Hessian      ... done   (      0.0 sec)
Calculating energy weighted overlap derivatives  ... done   (      0.2 sec)
Two electron integral derivatives (SHARK-RI)     ... done   (      0.8 sec)
Exchange-correlation integral derivatives        ... done   (      0.4 sec)
tr(F(y)Q(x)) contribution to the Hessian         ... done   (      0.0 sec)
Response fock operator R(S(x)) (SHARK-RIJCOSX)   ... done   (      0.7 sec)
XC Response fock operator R(S(x))                ... done   (      0.1 sec)
tr(F(y)S(x)) contribution to the Hessian         ... done   (      0.0 sec)
Transforming and finalizing RHSs                 ... done   (      0.0 sec)

----------------------------------------------
Solving the CP-SCF equations (RIJCOSX)           ...
----------------------------------------------
     CP-SCF ITERATION   0:   1.0193e-01 (   0.4 sec   0/ 12 done)
     CP-SCF ITERATION   1:   2.7048e-02 (   0.5 sec   0/ 12 done)
     CP-SCF ITERATION   2:   7.9892e-03 (   0.4 sec   0/ 12 done)
     CP-SCF ITERATION   3:   2.6370e-03 (   0.4 sec   0/ 12 done)
     CP-SCF ITERATION   4:   4.8384e-04 (   0.4 sec   1/ 12 done)
     CP-SCF ITERATION   5:   9.4469e-05 (   0.5 sec  12/ 12 done)
                    *** THE CP-SCF HAS CONVERGED ***

                                                 ... done   (      3.0 sec)
Forming perturbed density Hessian contributions  ... done   (      0.0 sec)
2nd integral derivative contribs (SHARK-RI)      ... done   (      0.9 sec)
Exchange-correlation Hessian                     ... done   (      0.3 sec)
Dispersion correction in the Hessian             ... done   (      0.1 sec)
Dipole derivatives                               ... (center of mass:  0.000019,  0.000000 -0.148317)done   (      0.2 sec)

Total SCF Hessian time: 0 days 0 hours 0 min 8 sec 

Writing the Hessian file to the disk             ... done


Maximum memory used throughout the entire SCFHESS-calculation: 109.7 MB

-----------------------
VIBRATIONAL FREQUENCIES
-----------------------

Scaling factor for frequencies =  1.000000000  (already applied!)

   0:         0.00 cm**-1
   1:         0.00 cm**-1
   2:         0.00 cm**-1
   3:         0.00 cm**-1
   4:         0.00 cm**-1
   5:         0.00 cm**-1
   6:      1194.59 cm**-1
   7:      1411.15 cm**-1
   8:      1413.62 cm**-1
   9:      3070.09 cm**-1
  10:      3163.65 cm**-1
  11:      3163.79 cm**-1


------------
NORMAL MODES
------------

These modes are the Cartesian displacements weighted by the diagonal matrix
M(i,i)=1/sqrt(m[i]) where m[i] is the mass of the displaced atom
Thus, these vectors are normalized but *not* orthogonal

                  0          1          2          3          4          5    
      0       0.000000   0.000000   0.000000   0.000000   0.000000   0.000000
      1       0.000000   0.000000   0.000000   0.000000   0.000000   0.000000
      2       0.000000   0.000000   0.000000   0.000000   0.000000   0.000000
      3       0.000000   0.000000   0.000000   0.000000   0.000000   0.000000
      4       0.000000   0.000000   0.000000   0.000000   0.000000   0.000000
      5       0.000000   0.000000   0.000000   0.000000   0.000000   0.000000
      6       0.000000   0.000000   0.000000   0.000000   0.000000   0.000000
      7       0.000000   0.000000   0.000000   0.000000   0.000000   0.000000
      8       0.000000   0.000000   0.000000   0.000000   0.000000   0.000000
      9       0.000000   0.000000   0.000000   0.000000   0.000000   0.000000
     10       0.000000   0.000000   0.000000   0.000000   0.000000   0.000000
     11       0.000000   0.000000   0.000000   0.000000   0.000000   0.000000
                  6          7          8          9         10         11    
      0       0.000625  -0.000001   0.078403   0.000285   0.000090   0.091497
      1       0.000000   0.078384   0.000001   0.000000   0.091518  -0.000090
      2      -0.133949   0.000000   0.000906   0.043752  -0.000000  -0.000102
      3       0.211235  -0.000002   0.137831   0.547684  -0.000748  -0.760283
      4      -0.000001  -0.762138  -0.000011  -0.000000   0.031412  -0.000031
      5       0.534041  -0.000004   0.246044  -0.172875   0.000287   0.291740
      6      -0.109343  -0.390379  -0.536034  -0.275538   0.341843  -0.165321
      7       0.179377  -0.085925  -0.391589   0.477329  -0.560621   0.341024
      8       0.531025   0.216137  -0.128417  -0.174227   0.252211  -0.145508
      9      -0.109342   0.390395  -0.536022  -0.275539  -0.342165  -0.164649
     10      -0.179377  -0.085936   0.391586  -0.477331  -0.561287  -0.339922
     11       0.531024  -0.216134  -0.128423  -0.174229  -0.252495  -0.145012


-----------
IR SPECTRUM
-----------

 Mode   freq       eps      Int      T**2         TX        TY        TZ
       cm**-1   L/(mol*cm) km/mol    a.u.
----------------------------------------------------------------------------
  6:   1194.59   0.002986   15.09  0.000780  ( 0.000028 -0.000000  0.027928)
  7:   1411.15   0.000695    3.51  0.000154  ( 0.000000 -0.012393 -0.000000)
  8:   1413.62   0.000680    3.44  0.000150  (-0.012247 -0.000000 -0.000312)
  9:   3070.09   0.000017    0.09  0.000002  ( 0.000059  0.000000  0.001314)
 10:   3163.65   0.005011   25.32  0.000494  ( 0.000022  0.022233  0.000000)
 11:   3163.79   0.004900   24.76  0.000483  ( 0.021985 -0.000022 -0.000015)

* The epsilon (eps) is given for a Dirac delta lineshape.
** The dipole moment derivative (T) already includes vibrational overlap.

The first frequency considered to be a vibration is 6
The total number of vibrations considered is 6


--------------------------
THERMOCHEMISTRY AT 298.15K
--------------------------

Temperature         ... 298.15 K
Pressure            ... 1.00 atm
Total Mass          ... 15.03 AMU

Throughout the following assumptions are being made:
  (1) The electronic state is orbitally nondegenerate
      but the spin degeneracy is treated
  (2) There are no thermally accessible electronically excited states
  (3) Hindered rotations indicated by low frequency modes are not
      treated as such but are treated as vibrations and this may
      cause some error
  (4) All equations used are the standard statistical mechanics
      equations for an ideal gas
  (5) All vibrations are strictly harmonic

freq.    1194.59  E(vib)   ...       0.01 
freq.    1411.15  E(vib)   ...       0.00 
freq.    1413.62  E(vib)   ...       0.00 
freq.    3070.09  E(vib)   ...       0.00 
freq.    3163.65  E(vib)   ...       0.00 
freq.    3163.79  E(vib)   ...       0.00 

------------
INNER ENERGY
------------

The inner energy is: U= E(el) + E(ZPE) + E(vib) + E(rot) + E(trans)
    E(el)   - is the total energy from the electronic structure calculation
              = E(kin-el) + E(nuc-el) + E(el-el) + E(nuc-nuc)
    E(ZPE)  - the the zero temperature vibrational energy from the frequency calculation
    E(vib)  - the the finite temperature correction to E(ZPE) due to population
              of excited vibrational states
    E(rot)  - is the rotational thermal energy
    E(trans)- is the translational thermal energy

Summary of contributions to the inner energy U:
Electronic energy                ...    -39.82411490 Eh
Zero point energy                ...      0.03056592 Eh      19.18 kcal/mol
Thermal vibrational correction   ...      0.00003127 Eh       0.02 kcal/mol
Thermal rotational correction    ...      0.00141627 Eh       0.89 kcal/mol
Thermal translational correction ...      0.00141627 Eh       0.89 kcal/mol
-----------------------------------------------------------------------
Total thermal energy                    -39.79068517 Eh


Summary of corrections to the electronic energy:
(perhaps to be used in another calculation)
Total thermal correction                  0.00286381 Eh       1.80 kcal/mol
Non-thermal (ZPE) correction              0.03056592 Eh      19.18 kcal/mol
-----------------------------------------------------------------------
Total correction                          0.03342973 Eh      20.98 kcal/mol


--------
ENTHALPY
--------

The enthalpy is H = U + kB*T
                kB is Boltzmann's constant
Total free energy                 ...    -39.79068517 Eh 
Thermal Enthalpy correction       ...      0.00094421 Eh       0.59 kcal/mol
-----------------------------------------------------------------------
Total Enthalpy                    ...    -39.78974096 Eh


Note: Rotational entropy computed according to Herzberg 
Infrared and Raman Spectra, Chapter V,1, Van Nostrand Reinhold, 1945 
Point Group:  C3v, Symmetry Number:   3  
Rotational constants in cm-1:     8.644788     8.644376     5.431770 

Vibrational entropy computed according to the QRRHO of S. Grimme
Chem.Eur.J. 2012 18 9955


-------
ENTROPY
-------

The entropy contributions are T*S = T*(S(el)+S(vib)+S(rot)+S(trans))
     S(el)   - electronic entropy
     S(vib)  - vibrational entropy
     S(rot)  - rotational entropy
     S(trans)- translational entropy
The entropies will be listed as multiplied by the temperature to get
units of energy

Electronic entropy                ...      0.00065446 Eh      0.41 kcal/mol
Vibrational entropy               ...      0.00003632 Eh      0.02 kcal/mol
Rotational entropy                ...      0.00563808 Eh      3.54 kcal/mol
Translational entropy             ...      0.01618771 Eh     10.16 kcal/mol
-----------------------------------------------------------------------
Final entropy term                ...      0.02251657 Eh     14.13 kcal/mol

In case the symmetry of your molecule has not been determined correctly
or in case you have a reason to use a different symmetry number we print 
out the resulting rotational entropy values for sn=1,12 :
 --------------------------------------------------------
|  sn= 1 | S(rot)=       0.00667537 Eh      4.19 kcal/mol|
|  sn= 2 | S(rot)=       0.00602092 Eh      3.78 kcal/mol|
|  sn= 3 | S(rot)=       0.00563808 Eh      3.54 kcal/mol|
|  sn= 4 | S(rot)=       0.00536646 Eh      3.37 kcal/mol|
|  sn= 5 | S(rot)=       0.00515577 Eh      3.24 kcal/mol|
|  sn= 6 | S(rot)=       0.00498363 Eh      3.13 kcal/mol|
|  sn= 7 | S(rot)=       0.00483808 Eh      3.04 kcal/mol|
|  sn= 8 | S(rot)=       0.00471200 Eh      2.96 kcal/mol|
|  sn= 9 | S(rot)=       0.00460080 Eh      2.89 kcal/mol|
|  sn=10 | S(rot)=       0.00450132 Eh      2.82 kcal/mol|
|  sn=11 | S(rot)=       0.00441133 Eh      2.77 kcal/mol|
|  sn=12 | S(rot)=       0.00432917 Eh      2.72 kcal/mol|
 --------------------------------------------------------


-------------------
GIBBS FREE ENERGY
-------------------

The Gibbs free energy is G = H - T*S

Total enthalpy                    ...    -39.78974096 Eh 
Total entropy correction          ...     -0.02251657 Eh    -14.13 kcal/mol
-----------------------------------------------------------------------
Final Gibbs free energy         ...    -39.81225753 Eh

For completeness - the Gibbs free energy minus the electronic energy
G-E(el)                           ...      0.01185737 Eh      7.44 kcal/mol


Timings for individual modules:

Sum of individual times         ...       74.431 sec (=   1.241 min)
GTO integral calculation        ...        9.248 sec (=   0.154 min)  12.4 %
SCF iterations                  ...       48.016 sec (=   0.800 min)  64.5 %
SCF Gradient evaluation         ...        6.586 sec (=   0.110 min)   8.8 %
Geometry relaxation             ...        0.168 sec (=   0.003 min)   0.2 %
Analytical frequency calculation...       10.414 sec (=   0.174 min)  14.0 %
                             ****ORCA TERMINATED NORMALLY****
TOTAL RUN TIME: 0 days 0 hours 1 minutes 23 seconds 17 msec

slurmID:    32260105
totalRuntime[s]:    83.055854374
