
                                 *****************
                                 * O   R   C   A *
                                 *****************

                                            #,                                       
                                            ###                                      
                                            ####                                     
                                            #####                                    
                                            ######                                   
                                           ########,                                 
                                     ,,################,,,,,                         
                               ,,#################################,,                 
                          ,,##########################################,,             
                       ,#########################################, ''#####,          
                    ,#############################################,,   '####,        
                  ,##################################################,,,,####,       
                ,###########''''           ''''###############################       
              ,#####''   ,,,,##########,,,,          '''####'''          '####       
            ,##' ,,,,###########################,,,                        '##       
           ' ,,###''''                  '''############,,,                           
         ,,##''                                '''############,,,,        ,,,,,,###''
      ,#''                                            '''#######################'''  
     '                                                          ''''####''''         
             ,#######,   #######,   ,#######,      ##                                
            ,#'     '#,  ##    ##  ,#'     '#,    #''#        ######   ,####,        
            ##       ##  ##   ,#'  ##            #'  '#       #        #'  '#        
            ##       ##  #######   ##           ,######,      #####,   #    #        
            '#,     ,#'  ##    ##  '#,     ,#' ,#      #,         ##   #,  ,#        
             '#######'   ##     ##  '#######'  #'      '#     #####' # '####'        



                  #######################################################
                  #                        -***-                        #
                  #          Department of theory and spectroscopy      #
                  #    Directorship and core code : Frank Neese         #
                  #        Max Planck Institute fuer Kohlenforschung    #
                  #                Kaiser Wilhelm Platz 1               #
                  #                 D-45470 Muelheim/Ruhr               #
                  #                      Germany                        #
                  #                                                     #
                  #                  All rights reserved                #
                  #                        -***-                        #
                  #######################################################


                         Program Version 5.0.4 -  RELEASE  -


 With contributions from (in alphabetic order):
   Daniel Aravena         : Magnetic Suceptibility
   Michael Atanasov       : Ab Initio Ligand Field Theory (pilot matlab implementation)
   Alexander A. Auer      : GIAO ZORA, VPT2 properties, NMR spectrum
   Ute Becker             : Parallelization
   Giovanni Bistoni       : ED, misc. LED, open-shell LED, HFLD
   Martin Brehm           : Molecular dynamics
   Dmytro Bykov           : SCF Hessian
   Vijay G. Chilkuri      : MRCI spin determinant printing, contributions to CSF-ICE
   Dipayan Datta          : RHF DLPNO-CCSD density
   Achintya Kumar Dutta   : EOM-CC, STEOM-CC
   Dmitry Ganyushin       : Spin-Orbit,Spin-Spin,Magnetic field MRCI
   Miquel Garcia          : C-PCM and meta-GGA Hessian, CC/C-PCM, Gaussian charge scheme
   Yang Guo               : DLPNO-NEVPT2, F12-NEVPT2, CIM, IAO-localization
   Andreas Hansen         : Spin unrestricted coupled pair/coupled cluster methods
   Benjamin Helmich-Paris : MC-RPA, TRAH-SCF, COSX integrals
   Lee Huntington         : MR-EOM, pCC
   Robert Izsak           : Overlap fitted RIJCOSX, COSX-SCS-MP3, EOM
   Marcus Kettner         : VPT2
   Christian Kollmar      : KDIIS, OOCD, Brueckner-CCSD(T), CCSD density, CASPT2, CASPT2-K
   Simone Kossmann        : Meta GGA functionals, TD-DFT gradient, OOMP2, MP2 Hessian
   Martin Krupicka        : Initial AUTO-CI
   Lucas Lang             : DCDCAS
   Marvin Lechner         : AUTO-CI (C++ implementation), FIC-MRCC
   Dagmar Lenk            : GEPOL surface, SMD
   Dimitrios Liakos       : Extrapolation schemes; Compound Job, initial MDCI parallelization
   Dimitrios Manganas     : Further ROCIS development; embedding schemes
   Dimitrios Pantazis     : SARC Basis sets
   Anastasios Papadopoulos: AUTO-CI, single reference methods and gradients
   Taras Petrenko         : DFT Hessian,TD-DFT gradient, ASA, ECA, R-Raman, ABS, FL, XAS/XES, NRVS
   Peter Pinski           : DLPNO-MP2, DLPNO-MP2 Gradient
   Christoph Reimann      : Effective Core Potentials
   Marius Retegan         : Local ZFS, SOC
   Christoph Riplinger    : Optimizer, TS searches, QM/MM, DLPNO-CCSD(T), (RO)-DLPNO pert. Triples
   Tobias Risthaus        : Range-separated hybrids, TD-DFT gradient, RPA, STAB
   Michael Roemelt        : Original ROCIS implementation
   Masaaki Saitow         : Open-shell DLPNO-CCSD energy and density
   Barbara Sandhoefer     : DKH picture change effects
   Avijit Sen             : IP-ROCIS
   Kantharuban Sivalingam : CASSCF convergence, NEVPT2, FIC-MRCI
   Bernardo de Souza      : ESD, SOC TD-DFT
   Georgi Stoychev        : AutoAux, RI-MP2 NMR, DLPNO-MP2 response
   Willem Van den Heuvel  : Paramagnetic NMR
   Boris Wezisla          : Elementary symmetry handling
   Frank Wennmohs         : Technical directorship


 We gratefully acknowledge several colleagues who have allowed us to
 interface, adapt or use parts of their codes:
   Stefan Grimme, W. Hujo, H. Kruse, P. Pracht,  : VdW corrections, initial TS optimization,
                  C. Bannwarth, S. Ehlert          DFT functionals, gCP, sTDA/sTD-DF
   Ed Valeev, F. Pavosevic, A. Kumar             : LibInt (2-el integral package), F12 methods
   Garnet Chan, S. Sharma, J. Yang, R. Olivares  : DMRG
   Ulf Ekstrom                                   : XCFun DFT Library
   Mihaly Kallay                                 : mrcc  (arbitrary order and MRCC methods)
   Jiri Pittner, Ondrej Demel                    : Mk-CCSD
   Frank Weinhold                                : gennbo (NPA and NBO analysis)
   Christopher J. Cramer and Donald G. Truhlar   : smd solvation model
   Lars Goerigk                                  : TD-DFT with DH, B97 family of functionals
   V. Asgeirsson, H. Jonsson                     : NEB implementation
   FAccTs GmbH                                   : IRC, NEB, NEB-TS, DLPNO-Multilevel, CI-OPT
                                                   MM, QMMM, 2- and 3-layer-ONIOM, Crystal-QMMM,
                                                   LR-CPCM, SF, NACMEs, symmetry and pop. for TD-DFT,
                                                   nearIR, NL-DFT gradient (VV10), updates on ESD,
                                                   ML-optimized integration grids
   S Lehtola, MJT Oliveira, MAL Marques          : LibXC Library
   Liviu Ungur et al                             : ANISO software


 Your calculation uses the libint2 library for the computation of 2-el integrals
 For citations please refer to: http://libint.valeyev.net

 Your ORCA version has been built with support for libXC version: 5.1.0
 For citations please refer to: https://tddft.org/programs/libxc/

 This ORCA versions uses:
   CBLAS   interface :  Fast vector & matrix operations
   LAPACKE interface :  Fast linear algebra routines
   SCALAPACK package :  Parallel linear algebra routines
   Shared memory     :  Shared parallel matrices
   BLAS/LAPACK       :  OpenBLAS 0.3.15  USE64BITINT DYNAMIC_ARCH NO_AFFINITY SkylakeX SINGLE_THREADED
        Core in use  :  SkylakeX
   Copyright (c) 2011-2014, The OpenBLAS Project


Your calculation utilizes the atom-pairwise dispersion correction
with the zero-damping scheme (D30)
Cite in your paper:
S.Grimme, J.Antony, S.Ehrlich and H.Krieg, J.Chem.Phys., 132, (2010), 154104 
   

XCFun DFT library Copyright 2009-2010 Ulf Ekstrom and contributors.
See http://admol.org/xcfun for more information.
This is free software; see the source code for copying conditions.
There is ABSOLUTELY NO WARRANTY; not even for MERCHANTABILITY or FITNESS FOR A PARTICULAR PURPOSE.
For details see the documentation.
Scientific users of this library should cite U. Ekstrom, L. Visscher, R. Bast, A. J. Thorvaldsen and K. Ruud;
J.Chem.Theor.Comp. 2010, DOI: 10.1021/ct100117s
XCFun Version 0.99 

================================================================================

----- Orbital basis set information -----
Your calculation utilizes the basis: def2-TZVPD
   F. Weigend and R. Ahlrichs, Phys. Chem. Chem. Phys. 7, 3297 (2005).
   D. Rappoport and F. Furche, J. Chem. Phys. 133 134105 (2010).

----- AuxJ basis set information -----
Your calculation utilizes the auxiliary basis: def2/J
   F. Weigend, Phys. Chem. Chem. Phys. 8, 1057 (2006).

================================================================================
                                        WARNINGS
                       Please study these warnings very carefully!
================================================================================


WARNING: Geometry Optimization
  ===> : Switching off AutoStart
         For restart on a previous wavefunction, please use MOREAD

INFO   : the flag for use of the SHARK integral package has been found!

================================================================================
                                       INPUT FILE
================================================================================
NAME = /beegfs/scratch/ispackman/PFAS_EPR_calcs/benchmark/JChemEd_CF3_radical/CH3_radical_115.0_degrees_IN-PROGRESS/CH3_radical_115.0_degrees.inp
|  1> ! UKS TightSCF wB97x-D3 def2-TZVPD xyzfile opt freq
|  2> 
|  3> # CH3 radical 115.0 degrees fixed
|  4> 
|  5> %maxcore 1000
|  6> %pal
|  7> nprocs 18
|  8> end
|  9> 
| 10> %geom Constraints
| 11>         { A * 0 * C }
| 12>     end
| 13> end
| 14> * xyz 0 2
| 15> C 0.00 0.00 0.00
| 16> H 1.0517737211 0.0000000000 -0.2452998974
| 17> H -0.5258868605 0.9108627615 -0.2452998974
| 18> H -0.5258868605 -0.9108627615 -0.2452998974
| 19> **                         ****END OF INPUT****
================================================================================

                       *****************************
                       * Geometry Optimization Run *
                       *****************************

Geometry optimization settings:
Update method            Update   .... BFGS
Choice of coordinates    CoordSys .... Z-matrix Internals
Initial Hessian          InHess   .... Almoef's Model

Convergence Tolerances:
Energy Change            TolE     ....  5.0000e-06 Eh
Max. Gradient            TolMAXG  ....  3.0000e-04 Eh/bohr
RMS Gradient             TolRMSG  ....  1.0000e-04 Eh/bohr
Max. Displacement        TolMAXD  ....  4.0000e-03 bohr
RMS Displacement         TolRMSD  ....  2.0000e-03 bohr
Strict Convergence                ....  False
------------------------------------------------------------------------------
                        ORCA OPTIMIZATION COORDINATE SETUP
------------------------------------------------------------------------------

The optimization will be done in new redundant internal coordinates
Making redundant internal coordinates   ...  (new redundants) done
Evaluating the initial hessian          ...  (Almloef) done
Evaluating the coordinates              ...  done
Calculating the B-matrix                .... done
Calculating the G-matrix                .... done
Diagonalizing the G-matrix              .... done
Imposing constraints:
 Iter   0:  RMS(Cart)=    0.0000000000 RMS(Int)=    0.0000000000
CONVERGED
Will constrain atom 0 coordinate 1 
Will constrain atom 0 coordinate 2 
Will constrain atom 1 coordinate 2 
The first mode is                       ....    1
The number of degrees of freedom        ....    6
Storing new coordinates                 .... done

    -----------------------------------------------------------------
                    Redundant Internal Coordinates


    -----------------------------------------------------------------
         Definition                    Initial Value    Approx d2E/dq
    -----------------------------------------------------------------
      1. B(H   1,C   0)                  1.0800         0.373575   
      2. B(H   2,C   0)                  1.0800         0.373575   
      3. B(H   3,C   0)                  1.0800         0.373575   
      4. A(H   2,C   0,H   3)          115.0000         0.294224 C 
      5. A(H   1,C   0,H   2)          115.0000         0.294224 C 
      6. A(H   1,C   0,H   3)          115.0000         0.294224 C 
      7. I(H   1,H   3,H   2,C   0)     38.1348         0.010352   
    -----------------------------------------------------------------

Number of atoms                         .... 4
Number of degrees of freedom            .... 7

         *************************************************************
         *                GEOMETRY OPTIMIZATION CYCLE   1            *
         *************************************************************
---------------------------------
CARTESIAN COORDINATES (ANGSTROEM)
---------------------------------
  C      0.000000    0.000000    0.000000
  H      1.051774    0.000000   -0.245300
  H     -0.525887    0.910863   -0.245300
  H     -0.525887   -0.910863   -0.245300

----------------------------
CARTESIAN COORDINATES (A.U.)
----------------------------
  NO LB      ZA    FRAG     MASS         X           Y           Z
   0 C     6.0000    0    12.011    0.000000    0.000000    0.000000
   1 H     1.0000    0     1.008    1.987564    0.000000   -0.463550
   2 H     1.0000    0     1.008   -0.993782    1.721281   -0.463550
   3 H     1.0000    0     1.008   -0.993782   -1.721281   -0.463550

--------------------------------
INTERNAL COORDINATES (ANGSTROEM)
--------------------------------
 C      0   0   0     0.000000000000     0.00000000     0.00000000
 H      1   0   0     1.080000000028     0.00000000     0.00000000
 H      1   2   0     1.079999999999   115.00000000     0.00000000
 H      1   2   3     1.079999999999   115.00000000   137.05065815

---------------------------
INTERNAL COORDINATES (A.U.)
---------------------------
 C      0   0   0     0.000000000000     0.00000000     0.00000000
 H      1   0   0     2.040904224688     0.00000000     0.00000000
 H      1   2   0     2.040904224634   115.00000000     0.00000000
 H      1   2   3     2.040904224634   115.00000000   137.05065815

---------------------
BASIS SET INFORMATION
---------------------
There are 2 groups of distinct atoms

 Group   1 Type C   : 12s6p3d1f contracted to 6s3p3d1f pattern {621111/411/111/1}
 Group   2 Type H   : 5s2p contracted to 3s2p pattern {311/11}

Atom   0C    basis set group =>   1
Atom   1H    basis set group =>   2
Atom   2H    basis set group =>   2
Atom   3H    basis set group =>   2
---------------------------------
AUXILIARY/J BASIS SET INFORMATION
---------------------------------
There are 2 groups of distinct atoms

 Group   1 Type C   : 12s5p4d2f1g contracted to 6s4p3d1f1g pattern {711111/2111/211/2/1}
 Group   2 Type H   : 5s2p1d contracted to 3s1p1d pattern {311/2/1}

Atom   0C    basis set group =>   1
Atom   1H    basis set group =>   2
Atom   2H    basis set group =>   2
Atom   3H    basis set group =>   2


           ************************************************************
           *        Program running with 18 parallel MPI-processes    *
           *              working on a common directory               *
           ************************************************************
------------------------------------------------------------------------------
                           ORCA GTO INTEGRAL CALCULATION
                           -- RI-GTO INTEGRALS CHOSEN --
------------------------------------------------------------------------------
------------------------------------------------------------------------------
                   ___                                                        
                  /   \      - P O W E R E D   B Y -                         
                 /     \                                                     
                 |  |  |   _    _      __       _____    __    __             
                 |  |  |  | |  | |    /  \     |  _  \  |  |  /  |          
                  \  \/   | |  | |   /    \    | | | |  |  | /  /          
                 / \  \   | |__| |  /  /\  \   | |_| |  |  |/  /          
                |  |  |   |  __  | /  /__\  \  |    /   |      \           
                |  |  |   | |  | | |   __   |  |    \   |  |\   \          
                \     /   | |  | | |  |  |  |  | |\  \  |  | \   \       
                 \___/    |_|  |_| |__|  |__|  |_| \__\ |__|  \__/        
                                                                              
                      - O R C A' S   B I G   F R I E N D -                    
                                      &                                       
                       - I N T E G R A L  F E E D E R -                       
                                                                              
 v1 FN, 2020, v2 2021                                                         
------------------------------------------------------------------------------


Reading SHARK input file /beegfs/scratch/ispackman/PFAS_EPR_calcs/benchmark/JChemEd_CF3_radical/CH3_radical_115.0_degrees_IN-PROGRESS/CH3_radical_115.0_degrees.SHARKINP.tmp ... ok
----------------------
SHARK INTEGRAL PACKAGE
----------------------

Number of atoms                             ...      4
Number of basis functions                   ...     64
Number of shells                            ...     28
Maximum angular momentum                    ...      3
Integral batch strategy                     ... SHARK/LIBINT Hybrid
RI-J (if used) integral strategy            ... SPLIT-RIJ (Revised 2003 algorithm where possible)
Printlevel                                  ...      1
Contraction scheme used                     ... SEGMENTED contraction
Coulomb Range Separation                    ... NOT USED
Exchange Range Separation                   ... Long Range
   Mu parameter                             ...  0.250000
   Scaling (regular/separated)              ...  0.195728  0.804272
Finite Nucleus Model                        ... NOT USED
Auxiliary Coulomb fitting basis             ... AVAILABLE
   # of basis functions in Aux-J            ...     82
   # of shells in Aux-J                     ...     30
   Maximum angular momentum in Aux-J        ...      4
Auxiliary J/K fitting basis                 ... NOT available
Auxiliary Correlation fitting basis         ... NOT available
Auxiliary 'external' fitting basis          ... NOT available
Integral threshold                          ...     2.500000e-11
Primitive cut-off                           ...     2.500000e-12
Primitive pair pre-selection threshold      ...     2.500000e-12

Calculating pre-screening integrals         ... done (  0.0 sec) Dimension = 28
Organizing shell pair data                  ... done (  0.0 sec)
Shell pair information
Total number of shell pairs                 ...       406
Shell pairs after pre-screening             ...       406
Total number of primitive shell pairs       ...       977
Primitive shell pairs kept                  ...       944
          la=0 lb=0:    120 shell pairs
          la=1 lb=0:    135 shell pairs
          la=1 lb=1:     45 shell pairs
          la=2 lb=0:     45 shell pairs
          la=2 lb=1:     27 shell pairs
          la=2 lb=2:      6 shell pairs
          la=3 lb=0:     15 shell pairs
          la=3 lb=1:      9 shell pairs
          la=3 lb=2:      3 shell pairs
          la=3 lb=3:      1 shell pairs

Calculating one electron integrals          ... done (  0.0 sec)
Calculating RI/J V-Matrix + Cholesky decomp.... done (  0.0 sec)
Calculating Nuclear repulsion               ... done (  0.0 sec) ENN=      9.691064054963 Eh

SHARK setup successfully completed in   0.2 seconds

Maximum memory used throughout the entire GTOINT-calculation: 14.0 MB


           ************************************************************
           *        Program running with 18 parallel MPI-processes    *
           *              working on a common directory               *
           ************************************************************
-------------------------------------------------------------------------------
                                 ORCA SCF
-------------------------------------------------------------------------------

------------
SCF SETTINGS
------------
Hamiltonian:
 Density Functional     Method          .... DFT(GTOs)
 Exchange Functional    Exchange        .... WB97X-D3
 Correlation Functional Correlation     .... WB97X-D3
 Gradients option       PostSCFGGA      .... off
 Hybrid DFT is turned on
   Fraction HF Exchange ScalHFX         ....  0.195728
   Scaling of DF-GGA-X  ScalDFX         ....  0.000000
   Scaling of DF-GGA-C  ScalDFC         ....  1.000000
   Scaling of DF-LDA-C  ScalLDAC        ....  1.000000
   Perturbative correction              ....  0.000000
   Density functional embedding theory  .... OFF
 Long-range corrected/Screened/Range-Separated Hybrid DFT is turned on
   Amount of maximum screened exact exchange              ....  0.804272
   Range separation parameter mu (erf(mu*r12)/r12)        ....  0.250000
 RI-approximation to the Coulomb term is turned on
   Number of AuxJ basis functions       .... 82
   RIJ-COSX (HFX calculated with COS-X)).... on


General Settings:
 Integral files         IntName         .... /beegfs/scratch/ispackman/PFAS_EPR_calcs/benchmark/JChemEd_CF3_radical/CH3_radical_115.0_degrees_IN-PROGRESS/CH3_radical_115.0_degrees
 Hartree-Fock type      HFTyp           .... UHF
 Total Charge           Charge          ....    0
 Multiplicity           Mult            ....    2
 Number of Electrons    NEL             ....    9
 Basis Dimension        Dim             ....   64
 Nuclear Repulsion      ENuc            ....      9.6910640550 Eh

Convergence Acceleration:
 DIIS                   CNVDIIS         .... on
   Start iteration      DIISMaxIt       ....    12
   Startup error        DIISStart       ....  0.200000
   # of expansion vecs  DIISMaxEq       ....     5
   Bias factor          DIISBfac        ....   1.050
   Max. coefficient     DIISMaxC        ....  10.000
 Trust-Rad. Augm. Hess. CNVTRAH         .... auto
   Auto Start mean grad. ratio tolernc. ....  1.125000
   Auto Start start iteration           ....    20
   Auto Start num. interpolation iter.  ....    10
   Max. Number of Micro iterations      ....    16
   Max. Number of Macro iterations      .... Maxiter - #DIIS iter
   Number of Davidson start vectors     ....     2
   Converg. threshold I  (grad. norm)   ....   1.000e-05
   Converg. threshold II (energy diff.) ....   1.000e-08
   Grad. Scal. Fac. for Micro threshold ....   0.100
   Minimum threshold for Micro iter.    ....   0.010
   NR start threshold (gradient norm)   ....   0.001
   Initial trust radius                 ....   0.400
   Minimum AH scaling param. (alpha)    ....   1.000
   Maximum AH scaling param. (alpha)    .... 1000.000
   Orbital update algorithm             .... Taylor
   White noise on init. David. guess    .... on
   Maximum white noise                  ....   0.010
   Quad. conv. algorithm                .... NR
 SOSCF                  CNVSOSCF        .... off
 Level Shifting         CNVShift        .... on
   Level shift para.    LevelShift      ....    0.2500
   Turn off err/grad.   ShiftErr        ....    0.0010
 Zerner damping         CNVZerner       .... off
 Static damping         CNVDamp         .... on
   Fraction old density DampFac         ....    0.7000
   Max. Damping (<1)    DampMax         ....    0.9800
   Min. Damping (>=0)   DampMin         ....    0.0000
   Turn off err/grad.   DampErr         ....    0.1000
 Fernandez-Rico         CNVRico         .... off

SCF Procedure:
 Maximum # iterations   MaxIter         ....   125
 SCF integral mode      SCFMode         .... Direct
   Integral package                     .... SHARK and LIBINT hybrid scheme
 Reset frequency        DirectResetFreq ....    20
 Integral Threshold     Thresh          ....  2.500e-11 Eh
 Primitive CutOff       TCut            ....  2.500e-12 Eh

Convergence Tolerance:
 Convergence Check Mode ConvCheckMode   .... Total+1el-Energy
 Convergence forced     ConvForced      .... 0
 Energy Change          TolE            ....  1.000e-08 Eh
 1-El. energy change                    ....  1.000e-05 Eh
 DIIS Error             TolErr          ....  5.000e-07


Diagonalization of the overlap matrix:
Smallest eigenvalue                        ... 6.024e-05
Time for diagonalization                   ...    0.002 sec
Threshold for overlap eigenvalues          ... 1.000e-08
Number of eigenvalues below threshold      ... 0
Time for construction of square roots      ...    0.017 sec
Total time needed                          ...    0.020 sec

Time for model grid setup =    0.043 sec

------------------------------
INITIAL GUESS: MODEL POTENTIAL
------------------------------
Loading Hartree-Fock densities                     ... done
Calculating cut-offs                               ... done
Initializing the effective Hamiltonian             ... done
Setting up the integral package (SHARK)            ... done
Starting the Coulomb interaction                   ... done (   0.1 sec)
Reading the grid                                   ... done
Mapping shells                                     ... done
Starting the XC term evaluation                    ... done (   0.0 sec)
  promolecular density results
     # of electrons  =      8.998209022
     EX              =     -5.933025092
     EC              =     -0.259112101
     EX+EC           =     -6.192137193
Transforming the Hamiltonian                       ... done (   0.0 sec)
Diagonalizing the Hamiltonian                      ... done (   0.0 sec)
Back transforming the eigenvectors                 ... done (   0.0 sec)
Now organizing SCF variables                       ... done
                      ------------------
                      INITIAL GUESS DONE (   0.2 sec)
                      ------------------
-------------------
DFT GRID GENERATION
-------------------

General Integration Accuracy     IntAcc      ... 4.388
Radial Grid Type                 RadialGrid  ... OptM3 with GC (2021)
Angular Grid (max. ang.)         AngularGrid ... 4 (Lebedev-302)
Angular grid pruning method      GridPruning ... 4 (adaptive)
Weight generation scheme         WeightScheme... Becke
Basis function cutoff            BFCut       ... 1.0000e-11
Integration weight cutoff        WCut        ... 1.0000e-14
Angular grids for H and He will be reduced by one unit
Partially contracted basis set               ... off
Rotationally invariant grid construction     ... off

Total number of grid points                  ...    17031
Total number of batches                      ...      268
Average number of points per batch           ...       63
Average number of grid points per atom       ...     4258
Time for grid setup =    0.100 sec

--------------------
COSX GRID GENERATION
--------------------

GRIDX 1
-------
General Integration Accuracy     IntAcc      ... 3.816
Radial Grid Type                 RadialGrid  ... OptM3 with GC (2021)
Angular Grid (max. ang.)         AngularGrid ... 1 (Lebedev-50)
Angular grid pruning method      GridPruning ... 4 (adaptive)
Weight generation scheme         WeightScheme... Becke
Basis function cutoff            BFCut       ... 1.0000e-11
Integration weight cutoff        WCut        ... 1.0000e-14
Angular grids for H and He will be reduced by one unit
Partially contracted basis set               ... on
Rotationally invariant grid construction     ... off

Total number of grid points                  ...     2150
Total number of batches                      ...       36
Average number of points per batch           ...       59
Average number of grid points per atom       ...      538
UseSFitting                                  ... on

GRIDX 2
-------
General Integration Accuracy     IntAcc      ... 4.020
Radial Grid Type                 RadialGrid  ... OptM3 with GC (2021)
Angular Grid (max. ang.)         AngularGrid ... 2 (Lebedev-110)
Angular grid pruning method      GridPruning ... 4 (adaptive)
Weight generation scheme         WeightScheme... Becke
Basis function cutoff            BFCut       ... 1.0000e-11
Integration weight cutoff        WCut        ... 1.0000e-14
Angular grids for H and He will be reduced by one unit
Partially contracted basis set               ... on
Rotationally invariant grid construction     ... off

Total number of grid points                  ...     5069
Total number of batches                      ...       81
Average number of points per batch           ...       62
Average number of grid points per atom       ...     1267
UseSFitting                                  ... on

GRIDX 3
-------
General Integration Accuracy     IntAcc      ... 4.338
Radial Grid Type                 RadialGrid  ... OptM3 with GC (2021)
Angular Grid (max. ang.)         AngularGrid ... 3 (Lebedev-194)
Angular grid pruning method      GridPruning ... 4 (adaptive)
Weight generation scheme         WeightScheme... Becke
Basis function cutoff            BFCut       ... 1.0000e-11
Integration weight cutoff        WCut        ... 1.0000e-14
Angular grids for H and He will be reduced by one unit
Partially contracted basis set               ... on
Rotationally invariant grid construction     ... off

Total number of grid points                  ...    11732
Total number of batches                      ...      186
Average number of points per batch           ...       63
Average number of grid points per atom       ...     2933
UseSFitting                                  ... on

Time for X-Grid setup             =    0.290 sec

--------------
SCF ITERATIONS
--------------
ITER       Energy         Delta-E        Max-DP      RMS-DP      [F,P]     Damp
               ***  Starting incremental Fock matrix formation  ***
  0    -39.7991378000   0.000000000000 0.01915216  0.00070641  0.0788205 0.7000
  1    -39.8130019677  -0.013864167766 0.01985494  0.00061277  0.0502705 0.7000
                               ***Turning on DIIS***
  2    -39.8207479355  -0.007745967765 0.04571085  0.00141397  0.0287388 0.0000
  3    -39.8338956244  -0.013147688944 0.01312506  0.00042877  0.0198253 0.0000
  4    -39.8355213319  -0.001625707512 0.00583295  0.00012914  0.0036142 0.0000
  5    -39.8355896892  -0.000068357299 0.00444940  0.00009428  0.0015810 0.0000
  6    -39.8356093306  -0.000019641346 0.00388145  0.00008174  0.0006517 0.0000
               *** Restarting incremental Fock matrix formation ***
                                   *** Resetting DIIS ***
  7    -39.8356165790  -0.000007248370 0.00076277  0.00001493  0.0000850 0.0000
  8    -39.8356167060  -0.000000127061 0.00031486  0.00000659  0.0000447 0.0000
  9    -39.8356167383  -0.000000032275 0.00001985  0.00000091  0.0000180 0.0000
 10    -39.8356167409  -0.000000002612 0.00001101  0.00000028  0.0000057 0.0000
                 **** Energy Check signals convergence ****

               *****************************************************
               *                     SUCCESS                       *
               *           SCF CONVERGED AFTER  11 CYCLES          *
               *****************************************************

Old exchange energy                            =     -2.173451207 Eh
New exchange energy                            =     -2.173457361 Eh
Exchange energy change after final integration =     -0.000006154 Eh
Total energy after final integration           =    -39.835622895 Eh
Final COS-X integration done in                =     0.129 sec

----------------
TOTAL SCF ENERGY
----------------

Total Energy       :          -39.83562289 Eh           -1083.98241 eV

Components:
Nuclear Repulsion  :            9.69106405 Eh             263.70726 eV
Electronic Energy  :          -49.52668695 Eh           -1347.68967 eV
One Electron Energy:          -71.68350295 Eh           -1950.60728 eV
Two Electron Energy:           22.15681600 Eh             602.91762 eV
Max COSX asymmetry :            0.00000035 Eh               0.00001 eV

Virial components:
Potential Energy   :          -79.47473853 Eh           -2162.61758 eV
Kinetic Energy     :           39.63911564 Eh            1078.63517 eV
Virial Ratio       :            2.00495741


DFT components:
N(Alpha)           :        5.000000605962 electrons
N(Beta)            :        4.000000409254 electrons
N(Total)           :        9.000001015216 electrons
E(XC)              :       -4.313635984375 Eh       
DFET-embed. en.    :        0.000000000000 Eh       

---------------
SCF CONVERGENCE
---------------

  Last Energy change         ...   -2.2774e-10  Tolerance :   1.0000e-08
  Last MAX-Density change    ...    0.0000e+00  Tolerance :   1.0000e-07
  Last RMS-Density change    ...    0.0000e+00  Tolerance :   5.0000e-09
  Last DIIS Error            ...    1.1136e-06  Tolerance :   5.0000e-07

             **** THE GBW FILE WAS UPDATED (/beegfs/scratch/ispackman/PFAS_EPR_calcs/benchmark/JChemEd_CF3_radical/CH3_radical_115.0_degrees_IN-PROGRESS/CH3_radical_115.0_degrees.gbw) ****
             **** DENSITY /beegfs/scratch/ispackman/PFAS_EPR_calcs/benchmark/JChemEd_CF3_radical/CH3_radical_115.0_degrees_IN-PROGRESS/CH3_radical_115.0_degrees.scfp WAS UPDATED ****
             **** ENERGY FILE WAS UPDATED (/beegfs/scratch/ispackman/PFAS_EPR_calcs/benchmark/JChemEd_CF3_radical/CH3_radical_115.0_degrees_IN-PROGRESS/CH3_radical_115.0_degrees.en.tmp) ****
----------------------
UHF SPIN CONTAMINATION
----------------------

Warning: in a DFT calculation there is little theoretical justification to 
         calculate <S**2> as in Hartree-Fock theory. We will do it anyways
         but you should keep in mind that the values have only limited relevance

Expectation value of <S**2>     :     0.753299
Ideal value S*(S+1) for S=0.5   :     0.750000
Deviation                       :     0.003299

             **** THE GBW FILE WAS UPDATED (/beegfs/scratch/ispackman/PFAS_EPR_calcs/benchmark/JChemEd_CF3_radical/CH3_radical_115.0_degrees_IN-PROGRESS/CH3_radical_115.0_degrees.gbw) ****
             **** DENSITY /beegfs/scratch/ispackman/PFAS_EPR_calcs/benchmark/JChemEd_CF3_radical/CH3_radical_115.0_degrees_IN-PROGRESS/CH3_radical_115.0_degrees.scfp WAS UPDATED ****
----------------
ORBITAL ENERGIES
----------------
                 SPIN UP ORBITALS
  NO   OCC          E(Eh)            E(eV) 
   0   1.0000     -10.287869      -279.9472 
   1   1.0000      -0.805969       -21.9315 
   2   1.0000      -0.515451       -14.0261 
   3   1.0000      -0.515422       -14.0253 
   4   1.0000      -0.342218        -9.3122 
   5   0.0000       0.076343         2.0774 
   6   0.0000       0.161394         4.3917 
   7   0.0000       0.161401         4.3920 
   8   0.0000       0.200160         5.4466 
   9   0.0000       0.200167         5.4468 
  10   0.0000       0.201139         5.4733 
  11   0.0000       0.226211         6.1555 
  12   0.0000       0.255148         6.9429 
  13   0.0000       0.255153         6.9431 
  14   0.0000       0.308698         8.4001 
  15   0.0000       0.364590         9.9210 
  16   0.0000       0.364592         9.9211 
  17   0.0000       0.369594        10.0572 
  18   0.0000       0.371134        10.0991 
  19   0.0000       0.388464        10.5707 
  20   0.0000       0.388466        10.5707 
  21   0.0000       0.439884        11.9699 
  22   0.0000       0.439888        11.9700 
  23   0.0000       0.508214        13.8292 
  24   0.0000       0.536683        14.6039 
  25   0.0000       0.539474        14.6798 
  26   0.0000       0.539476        14.6799 
  27   0.0000       0.779021        21.1982 
  28   0.0000       0.799902        21.7664 
  29   0.0000       0.799908        21.7666 
  30   0.0000       0.885685        24.1007 
  31   0.0000       0.885700        24.1011 
  32   0.0000       1.039221        28.2786 
  33   0.0000       1.091635        29.7049 
  34   0.0000       1.091696        29.7065 
  35   0.0000       1.586869        43.1809 
  36   0.0000       1.683178        45.8016 
  37   0.0000       1.733645        47.1749 
  38   0.0000       1.822597        49.5954 
  39   0.0000       1.822626        49.5962 
  40   0.0000       1.924873        52.3785 
  41   0.0000       1.924925        52.3799 
  42   0.0000       2.057960        55.9999 
  43   0.0000       2.272925        61.8494 
  44   0.0000       2.417805        65.7918 
  45   0.0000       2.417835        65.7926 
  46   0.0000       2.440045        66.3970 
  47   0.0000       2.440071        66.3977 
  48   0.0000       2.714199        73.8571 
  49   0.0000       2.714251        73.8585 
  50   0.0000       2.805116        76.3311 
  51   0.0000       3.107303        84.5540 
  52   0.0000       3.164521        86.1110 
  53   0.0000       3.164545        86.1116 
  54   0.0000       3.302792        89.8735 
  55   0.0000       3.302827        89.8745 
  56   0.0000       3.516226        95.6814 
  57   0.0000       3.516269        95.6825 
  58   0.0000       3.586425        97.5916 
  59   0.0000       3.604459        98.0823 
  60   0.0000       4.345026       118.2342 
  61   0.0000       4.345099       118.2361 
  62   0.0000       4.684384       127.4686 
  63   0.0000      22.201573       604.1355 

                 SPIN DOWN ORBITALS
  NO   OCC          E(Eh)            E(eV) 
   0   1.0000     -10.277443      -279.6635 
   1   1.0000      -0.763316       -20.7709 
   2   1.0000      -0.502119       -13.6634 
   3   1.0000      -0.502092       -13.6626 
   4   0.0000      -0.000006        -0.0002 
   5   0.0000       0.086203         2.3457 
   6   0.0000       0.165659         4.5078 
   7   0.0000       0.165665         4.5080 
   8   0.0000       0.201681         5.4880 
   9   0.0000       0.201688         5.4882 
  10   0.0000       0.227819         6.1993 
  11   0.0000       0.253959         6.9106 
  12   0.0000       0.260694         7.0938 
  13   0.0000       0.260701         7.0940 
  14   0.0000       0.319835         8.7031 
  15   0.0000       0.371232        10.1017 
  16   0.0000       0.373279        10.1574 
  17   0.0000       0.373289        10.1577 
  18   0.0000       0.376267        10.2387 
  19   0.0000       0.394773        10.7423 
  20   0.0000       0.394778        10.7425 
  21   0.0000       0.448238        12.1972 
  22   0.0000       0.448238        12.1972 
  23   0.0000       0.532757        14.4970 
  24   0.0000       0.540227        14.7003 
  25   0.0000       0.540231        14.7004 
  26   0.0000       0.553031        15.0487 
  27   0.0000       0.789490        21.4831 
  28   0.0000       0.808287        21.9946 
  29   0.0000       0.808294        21.9948 
  30   0.0000       0.914163        24.8756 
  31   0.0000       0.914173        24.8759 
  32   0.0000       1.062218        28.9044 
  33   0.0000       1.097565        29.8663 
  34   0.0000       1.097617        29.8677 
  35   0.0000       1.648395        44.8551 
  36   0.0000       1.683262        45.8039 
  37   0.0000       1.751944        47.6728 
  38   0.0000       1.833034        49.8794 
  39   0.0000       1.833078        49.8806 
  40   0.0000       1.939643        52.7804 
  41   0.0000       1.939656        52.7807 
  42   0.0000       2.073051        56.4106 
  43   0.0000       2.277038        61.9614 
  44   0.0000       2.420011        65.8518 
  45   0.0000       2.420013        65.8519 
  46   0.0000       2.457122        66.8617 
  47   0.0000       2.457180        66.8633 
  48   0.0000       2.727558        74.2206 
  49   0.0000       2.727629        74.2226 
  50   0.0000       2.845634        77.4336 
  51   0.0000       3.149681        85.7072 
  52   0.0000       3.220987        87.6475 
  53   0.0000       3.221018        87.6483 
  54   0.0000       3.338682        90.8502 
  55   0.0000       3.338707        90.8508 
  56   0.0000       3.552276        96.6624 
  57   0.0000       3.552313        96.6633 
  58   0.0000       3.619071        98.4799 
  59   0.0000       3.627325        98.7045 
  60   0.0000       4.366354       118.8145 
  61   0.0000       4.366458       118.8174 
  62   0.0000       4.709204       128.1440 
  63   0.0000      22.222114       604.6945 

                    ********************************
                    * MULLIKEN POPULATION ANALYSIS *
                    ********************************

--------------------------------------------
MULLIKEN ATOMIC CHARGES AND SPIN POPULATIONS
--------------------------------------------
   0 C :   -0.723984    0.898955
   1 H :    0.241183    0.033649
   2 H :    0.241398    0.033698
   3 H :    0.241403    0.033698
Sum of atomic charges         :    0.0000000
Sum of atomic spin populations:    1.0000000

-----------------------------------------------------
MULLIKEN REDUCED ORBITAL CHARGES AND SPIN POPULATIONS
-----------------------------------------------------
CHARGE
  0 C s       :     3.427490  s :     3.427490
      pz      :     0.928671  p :     3.262105
      px      :     1.166601
      py      :     1.166833
      dz2     :     0.003403  d :     0.032738
      dxz     :     0.005038
      dyz     :     0.005038
      dx2y2   :     0.009623
      dxy     :     0.009637
      f0      :     0.000300  f :     0.001651
      f+1     :     0.000300
      f-1     :     0.000301
      f+2     :    -0.000071
      f-2     :    -0.000072
      f+3     :     0.000894
      f-3     :     0.000000
  1 H s       :     0.710968  s :     0.710968
      pz      :     0.022951  p :     0.047849
      px      :     0.021262
      py      :     0.003636
  2 H s       :     0.710825  s :     0.710825
      pz      :     0.022888  p :     0.047777
      px      :     0.008033
      py      :     0.016856
  3 H s       :     0.710822  s :     0.710822
      pz      :     0.022888  p :     0.047775
      px      :     0.008032
      py      :     0.016854

SPIN
  0 C s       :    -0.026453  s :    -0.026453
      pz      :     0.902427  p :     0.931191
      px      :     0.014384
      py      :     0.014379
      dz2     :    -0.003159  d :    -0.004555
      dxz     :    -0.001227
      dyz     :    -0.001226
      dx2y2   :     0.000527
      dxy     :     0.000529
      f0      :    -0.000173  f :    -0.001228
      f+1     :    -0.000453
      f-1     :    -0.000454
      f+2     :    -0.000012
      f-2     :    -0.000011
      f+3     :    -0.000126
      f-3     :    -0.000000
  1 H s       :     0.005177  s :     0.005177
      pz      :     0.021931  p :     0.028472
      px      :     0.003339
      py      :     0.003202
  2 H s       :     0.005283  s :     0.005283
      pz      :     0.021865  p :     0.028415
      px      :     0.003237
      py      :     0.003313
  3 H s       :     0.005283  s :     0.005283
      pz      :     0.021865  p :     0.028415
      px      :     0.003237
      py      :     0.003313


                     *******************************
                     * LOEWDIN POPULATION ANALYSIS *
                     *******************************

-------------------------------------------
LOEWDIN ATOMIC CHARGES AND SPIN POPULATIONS
-------------------------------------------
   0 C :    0.060162    0.833968
   1 H :   -0.020060    0.055362
   2 H :   -0.020051    0.055335
   3 H :   -0.020051    0.055335

----------------------------------------------------
LOEWDIN REDUCED ORBITAL CHARGES AND SPIN POPULATIONS
----------------------------------------------------
CHARGE
  0 C s       :     2.913270  s :     2.913270
      pz      :     0.785630  p :     2.905089
      px      :     1.059745
      py      :     1.059714
      dz2     :     0.010710  d :     0.112133
      dxz     :     0.008512
      dyz     :     0.008508
      dx2y2   :     0.042197
      dxy     :     0.042207
      f0      :     0.000630  f :     0.009345
      f+1     :     0.001258
      f-1     :     0.001259
      f+2     :     0.001356
      f-2     :     0.001355
      f+3     :     0.003488
      f-3     :     0.000000
  1 H s       :     0.761097  s :     0.761097
      pz      :     0.067518  p :     0.258963
      px      :     0.124632
      py      :     0.066813
  2 H s       :     0.761105  s :     0.761105
      pz      :     0.067508  p :     0.258946
      px      :     0.081258
      py      :     0.110180
  3 H s       :     0.761105  s :     0.761105
      pz      :     0.067508  p :     0.258946
      px      :     0.081258
      py      :     0.110180

SPIN
  0 C s       :     0.046182  s :     0.046182
      pz      :     0.765616  p :     0.796846
      px      :     0.015606
      py      :     0.015624
      dz2     :    -0.001708  d :    -0.007891
      dxz     :    -0.001033
      dyz     :    -0.001031
      dx2y2   :    -0.002058
      dxy     :    -0.002061
      f0      :    -0.000151  f :    -0.001169
      f+1     :    -0.000413
      f-1     :    -0.000414
      f+2     :    -0.000068
      f-2     :    -0.000068
      f+3     :    -0.000055
      f-3     :    -0.000000
  1 H s       :    -0.010692  s :    -0.010692
      pz      :     0.063284  p :     0.066054
      px      :     0.003300
      py      :    -0.000530
  2 H s       :    -0.010704  s :    -0.010704
      pz      :     0.063267  p :     0.066039
      px      :     0.000428
      py      :     0.002344
  3 H s       :    -0.010704  s :    -0.010704
      pz      :     0.063267  p :     0.066039
      px      :     0.000428
      py      :     0.002344


                      *****************************
                      * MAYER POPULATION ANALYSIS *
                      *****************************

  NA   - Mulliken gross atomic population
  ZA   - Total nuclear charge
  QA   - Mulliken gross atomic charge
  VA   - Mayer's total valence
  BVA  - Mayer's bonded valence
  FA   - Mayer's free valence

  ATOM       NA         ZA         QA         VA         BVA        FA
  0 C      6.7240     6.0000    -0.7240     3.7453     2.9035     0.8418
  1 H      0.7588     1.0000     0.2412     0.9998     0.9983     0.0014
  2 H      0.7586     1.0000     0.2414     0.9995     0.9981     0.0014
  3 H      0.7586     1.0000     0.2414     0.9995     0.9981     0.0014

  Mayer bond orders larger than 0.100000
B(  0-C ,  1-H ) :   0.9681 B(  0-C ,  2-H ) :   0.9677 B(  0-C ,  3-H ) :   0.9677 


-------
TIMINGS
-------

Total SCF time: 0 days 0 hours 0 min 7 sec 

Total time                  ....       7.570 sec
Sum of individual times     ....       6.936 sec  ( 91.6%)

Fock matrix formation       ....       5.739 sec  ( 75.8%)
  Split-RI-J                ....       0.835 sec  ( 14.6% of F)
  Chain of spheres X        ....       1.330 sec  ( 23.2% of F)
  XC integration            ....       1.102 sec  ( 19.2% of F)
    Basis function eval.    ....       0.051 sec  (  4.6% of XC)
    Density eval.           ....       0.050 sec  (  4.5% of XC)
    XC-Functional eval.     ....       0.052 sec  (  4.7% of XC)
    XC-Potential eval.      ....       0.072 sec  (  6.6% of XC)
Diagonalization             ....       0.160 sec  (  2.1%)
Density matrix formation    ....       0.007 sec  (  0.1%)
Population analysis         ....       0.150 sec  (  2.0%)
Initial guess               ....       0.112 sec  (  1.5%)
Orbital Transformation      ....       0.000 sec  (  0.0%)
Orbital Orthonormalization  ....       0.000 sec  (  0.0%)
DIIS solution               ....       0.336 sec  (  4.4%)
Grid generation             ....       0.432 sec  (  5.7%)

Maximum memory used throughout the entire SCF-calculation: 58.5 MB


-------------------------------------------------------------------------------
                          DFT DISPERSION CORRECTION                            
                                                                               
                              DFTD3 V3.1  Rev 1                                
                              USING zero damping                               
-------------------------------------------------------------------------------
The omegaB97X-D3 functional is recognized. Fit by Chai et al.
Active option DFTDOPT                   ...         3   

molecular C6(AA) [au] = 106.961835 


            DFT-D V3
 parameters
 s6 scaling factor         :     1.0000 
 rs6 scaling factor        :     1.2810 
 s8 scaling factor         :     1.0000 
 rs8 scaling factor        :     1.0940 
 Damping factor alpha6     :    14.0000 
 Damping factor alpha8     :    16.0000 
 ad hoc parameters k1-k3   :    16.0000     1.3333    -4.0000 

 Edisp/kcal,au: -0.009385545203  -0.000014956817 
 E6   /kcal   :  -0.001464078 
 E8   /kcal   :  -0.007921467 
 % E8         :  84.400717106 

-------------------------   ----------------
Dispersion correction           -0.000014957
-------------------------   ----------------


-------------------------   --------------------
FINAL SINGLE POINT ENERGY       -39.835637851722
-------------------------   --------------------



           ************************************************************
           *        Program running with 18 parallel MPI-processes    *
           *              working on a common directory               *
           ************************************************************
------------------------------------------------------------------------------
                         ORCA SCF GRADIENT CALCULATION
------------------------------------------------------------------------------

 ... reading COSX grid (gridx3)
Gradient of the Kohn-Sham DFT energy:
Kohn-Sham wavefunction type      ... UKS
Hartree-Fock exchange scaling    ...    0.196
Number of operators              ...    2
Number of atoms                  ...    4
Basis set dimensions             ...   64
Integral neglect threshold       ... 2.5e-11
Integral primitive cutoff        ... 2.5e-12
SHARK Integral package           ... ON

Nuc. rep. gradient       (SHARK) ... done (  0.0 sec)
HCore & Overlap gradient (SHARK) ... done (  0.0 sec)
RI-J gradient            (SHARK) ... done (  0.1 sec)
COSX-gradient                    ... done (  0.1 sec)
Exchange-correlation gradient    ... done
Dispersion correction            ... done

------------------
CARTESIAN GRADIENT
------------------

WARNING: THERE ARE 3 CONSTRAINED CARTESIAN COORDINATES
   1   C   :   -0.000022391   -0.000000007    0.019039485
   2   H   :   -0.004590611   -0.000000018   -0.006357353
   3   H   :    0.002320695   -0.003947344   -0.006344806
   4   H   :    0.002320695    0.003947333   -0.006344792

Difference to translation invariance:
           :    0.0000283882   -0.0000000361   -0.0000074667

Difference to rotation invariance:
           :   -0.0000000373    0.0000014131   -0.0000000267

Norm of the cartesian gradient     ...    0.0233760411
RMS gradient                       ...    0.0067480818
MAX gradient                       ...    0.0190394847

-------
TIMINGS
-------

Total SCF gradient time            ...        0.660 sec

One electron gradient       ....       0.007 sec  (  1.0%)
RI-J Coulomb gradient       ....       0.145 sec  ( 21.9%)
COSX gradient               ....       0.117 sec  ( 17.8%)
XC gradient                 ....       0.089 sec  ( 13.5%)

Maximum memory used throughout the entire SCFGRAD-calculation: 33.6 MB
------------------------------------------------------------------------------
                         ORCA GEOMETRY RELAXATION STEP
------------------------------------------------------------------------------

Reading the OPT-File                    .... done
Getting information on internals        .... done
Copying old internal coords+grads       .... done
Making the new internal coordinates     .... (new redundants).... done
Validating the new internal coordinates .... (new redundants).... done
Calculating the B-matrix                .... done
Calculating the G,G- and P matrices     .... done
Transforming gradient to internals      .... done
Projecting the internal gradient        .... done
Number of atoms                         ....   4
Number of internal coordinates          ....   7
Current Energy                          ....   -39.835637852 Eh
Current gradient norm                   ....     0.023376041 Eh/bohr
Maximum allowed component of the step   ....  0.300
Current trust radius                    ....  0.300
Evaluating the initial hessian          ....  (Almloef) done
Projecting the Hessian                  .... done
Forming the augmented Hessian           .... done
Diagonalizing the augmented Hessian     .... done
Last element of RFO vector              ....  0.999901935
Lowest eigenvalues of augmented Hessian:
 -0.000073295  0.373574723  0.373574723  0.373648018 1000.000000000
Length of the computed step             ....  0.014005697
The final length of the internal step   ....  0.014005697
Converting the step to cartesian space:
 Initial RMS(Int)=    0.0052936559
Transforming coordinates:
 Iter   0:  RMS(Cart)=    0.0039641026 RMS(Int)=    0.0052936559
 Iter   1:  RMS(Cart)=    0.0000000000 RMS(Int)=    0.0000000000
Imposing constraints:
 Iter   0:  RMS(Cart)=    0.0000000000 RMS(Int)=    0.0000000002
CONVERGED
done
Storing new coordinates                 .... done

                                .--------------------.
          ----------------------|Geometry convergence|-------------------------
          Item                value                   Tolerance       Converged
          ---------------------------------------------------------------------
          RMS gradient        0.0019779640            0.0001000000      NO
          MAX gradient        0.0030346536            0.0003000000      NO
          RMS step            0.0052936559            0.0020000000      NO
          MAX step            0.0081216907            0.0040000000      NO
          ........................................................
          Max(Bonds)      0.0043      Max(Angles)    0.00
          Max(Dihed)        0.00      Max(Improp)    0.00
          ---------------------------------------------------------------------

The optimization has not yet converged - more geometry cycles are needed


    ---------------------------------------------------------------------------
                         Redundant Internal Coordinates
                            (Angstroem and degrees)

        Definition                    Value    dE/dq     Step     New-Value
    ----------------------------------------------------------------------------
     1. B(H   1,C   0)                1.0800 -0.003035  0.0043    1.0843   
     2. B(H   2,C   0)                1.0800 -0.003015  0.0043    1.0843   
     3. B(H   3,C   0)                1.0800 -0.003015  0.0043    1.0843   
     4. A(H   2,C   0,H   3)          115.00 -0.006980    0.00    115.00 C 
     5. A(H   1,C   0,H   2)          115.00 -0.002246   -0.00    115.00 C 
     6. A(H   1,C   0,H   3)          115.00 -0.002246    0.00    115.00 C 
     7. I(H   1,H   3,H   2,C   0)     38.13  0.013112    0.00     38.13   
    ----------------------------------------------------------------------------

         *************************************************************
         *                GEOMETRY OPTIMIZATION CYCLE   2            *
         *************************************************************
---------------------------------
CARTESIAN COORDINATES (ANGSTROEM)
---------------------------------
  C     -0.000007    0.000000    0.000729
  H      1.055953    0.000000   -0.245544
  H     -0.527973    0.914464   -0.245542
  H     -0.527973   -0.914464   -0.245542

----------------------------
CARTESIAN COORDINATES (A.U.)
----------------------------
  NO LB      ZA    FRAG     MASS         X           Y           Z
   0 C     6.0000    0    12.011   -0.000014    0.000000    0.001377
   1 H     1.0000    0     1.008    1.995461    0.000000   -0.464011
   2 H     1.0000    0     1.008   -0.997724    1.728086   -0.464008
   3 H     1.0000    0     1.008   -0.997724   -1.728086   -0.464008

--------------------------------
INTERNAL COORDINATES (ANGSTROEM)
--------------------------------
 C      0   0   0     0.000000000000     0.00000000     0.00000000
 H      1   0   0     1.084297813637     0.00000000     0.00000000
 H      1   2   0     1.084269600995   115.00000000     0.00000000
 H      1   2   3     1.084269610416   115.00000000   137.05065816

---------------------------
INTERNAL COORDINATES (A.U.)
---------------------------
 C      0   0   0     0.000000000000     0.00000000     0.00000000
 H      1   0   0     2.049025915384     0.00000000     0.00000000
 H      1   2   0     2.048972601217   115.00000000     0.00000000
 H      1   2   3     2.048972619021   115.00000000   137.05065816



           ************************************************************
           *        Program running with 18 parallel MPI-processes    *
           *              working on a common directory               *
           ************************************************************
------------------------------------------------------------------------------
                   ___                                                        
                  /   \      - P O W E R E D   B Y -                         
                 /     \                                                     
                 |  |  |   _    _      __       _____    __    __             
                 |  |  |  | |  | |    /  \     |  _  \  |  |  /  |          
                  \  \/   | |  | |   /    \    | | | |  |  | /  /          
                 / \  \   | |__| |  /  /\  \   | |_| |  |  |/  /          
                |  |  |   |  __  | /  /__\  \  |    /   |      \           
                |  |  |   | |  | | |   __   |  |    \   |  |\   \          
                \     /   | |  | | |  |  |  |  | |\  \  |  | \   \       
                 \___/    |_|  |_| |__|  |__|  |_| \__\ |__|  \__/        
                                                                              
                      - O R C A' S   B I G   F R I E N D -                    
                                      &                                       
                       - I N T E G R A L  F E E D E R -                       
                                                                              
 v1 FN, 2020, v2 2021                                                         
------------------------------------------------------------------------------


Reading SHARK input file /beegfs/scratch/ispackman/PFAS_EPR_calcs/benchmark/JChemEd_CF3_radical/CH3_radical_115.0_degrees_IN-PROGRESS/CH3_radical_115.0_degrees.SHARKINP.tmp ... ok
----------------------
SHARK INTEGRAL PACKAGE
----------------------

Number of atoms                             ...      4
Number of basis functions                   ...     64
Number of shells                            ...     28
Maximum angular momentum                    ...      3
Integral batch strategy                     ... SHARK/LIBINT Hybrid
RI-J (if used) integral strategy            ... SPLIT-RIJ (Revised 2003 algorithm where possible)
Printlevel                                  ...      1
Contraction scheme used                     ... SEGMENTED contraction
Coulomb Range Separation                    ... NOT USED
Exchange Range Separation                   ... Long Range
   Mu parameter                             ...  0.250000
   Scaling (regular/separated)              ...  0.195728  0.804272
Finite Nucleus Model                        ... NOT USED
Auxiliary Coulomb fitting basis             ... AVAILABLE
   # of basis functions in Aux-J            ...     82
   # of shells in Aux-J                     ...     30
   Maximum angular momentum in Aux-J        ...      4
Auxiliary J/K fitting basis                 ... NOT available
Auxiliary Correlation fitting basis         ... NOT available
Auxiliary 'external' fitting basis          ... NOT available
Integral threshold                          ...     2.500000e-11
Primitive cut-off                           ...     2.500000e-12
Primitive pair pre-selection threshold      ...     2.500000e-12

Calculating pre-screening integrals         ... done (  0.0 sec) Dimension = 28
Organizing shell pair data                  ... done (  0.0 sec)
Shell pair information
Total number of shell pairs                 ...       406
Shell pairs after pre-screening             ...       406
Total number of primitive shell pairs       ...       977
Primitive shell pairs kept                  ...       944
          la=0 lb=0:    120 shell pairs
          la=1 lb=0:    135 shell pairs
          la=1 lb=1:     45 shell pairs
          la=2 lb=0:     45 shell pairs
          la=2 lb=1:     27 shell pairs
          la=2 lb=2:      6 shell pairs
          la=3 lb=0:     15 shell pairs
          la=3 lb=1:      9 shell pairs
          la=3 lb=2:      3 shell pairs
          la=3 lb=3:      1 shell pairs

Calculating one electron integrals          ... done (  0.0 sec)
Calculating RI/J V-Matrix + Cholesky decomp.... done (  0.0 sec)
Calculating Nuclear repulsion               ... done (  0.0 sec) ENN=      9.652819154744 Eh

SHARK setup successfully completed in   0.2 seconds

Maximum memory used throughout the entire GTOINT-calculation: 14.0 MB


           ************************************************************
           *        Program running with 18 parallel MPI-processes    *
           *              working on a common directory               *
           ************************************************************

Diagonalization of the overlap matrix:
Smallest eigenvalue                        ... 6.184e-05
Time for diagonalization                   ...    0.002 sec
Threshold for overlap eigenvalues          ... 1.000e-08
Number of eigenvalues below threshold      ... 0
Time for construction of square roots      ...    0.014 sec
Total time needed                          ...    0.017 sec

-------------------
DFT GRID GENERATION
-------------------

General Integration Accuracy     IntAcc      ... 4.388
Radial Grid Type                 RadialGrid  ... OptM3 with GC (2021)
Angular Grid (max. ang.)         AngularGrid ... 4 (Lebedev-302)
Angular grid pruning method      GridPruning ... 4 (adaptive)
Weight generation scheme         WeightScheme... Becke
Basis function cutoff            BFCut       ... 1.0000e-11
Integration weight cutoff        WCut        ... 1.0000e-14
Angular grids for H and He will be reduced by one unit
Partially contracted basis set               ... off
Rotationally invariant grid construction     ... off

Total number of grid points                  ...    17035
Total number of batches                      ...      267
Average number of points per batch           ...       63
Average number of grid points per atom       ...     4259
Time for grid setup =    0.107 sec

--------------------
COSX GRID GENERATION
--------------------

GRIDX 1
-------
General Integration Accuracy     IntAcc      ... 3.816
Radial Grid Type                 RadialGrid  ... OptM3 with GC (2021)
Angular Grid (max. ang.)         AngularGrid ... 1 (Lebedev-50)
Angular grid pruning method      GridPruning ... 4 (adaptive)
Weight generation scheme         WeightScheme... Becke
Basis function cutoff            BFCut       ... 1.0000e-11
Integration weight cutoff        WCut        ... 1.0000e-14
Angular grids for H and He will be reduced by one unit
Partially contracted basis set               ... on
Rotationally invariant grid construction     ... off

Total number of grid points                  ...     2150
Total number of batches                      ...       36
Average number of points per batch           ...       59
Average number of grid points per atom       ...      538
UseSFitting                                  ... on

GRIDX 2
-------
General Integration Accuracy     IntAcc      ... 4.020
Radial Grid Type                 RadialGrid  ... OptM3 with GC (2021)
Angular Grid (max. ang.)         AngularGrid ... 2 (Lebedev-110)
Angular grid pruning method      GridPruning ... 4 (adaptive)
Weight generation scheme         WeightScheme... Becke
Basis function cutoff            BFCut       ... 1.0000e-11
Integration weight cutoff        WCut        ... 1.0000e-14
Angular grids for H and He will be reduced by one unit
Partially contracted basis set               ... on
Rotationally invariant grid construction     ... off

Total number of grid points                  ...     5069
Total number of batches                      ...       82
Average number of points per batch           ...       61
Average number of grid points per atom       ...     1267
UseSFitting                                  ... on

GRIDX 3
-------
General Integration Accuracy     IntAcc      ... 4.338
Radial Grid Type                 RadialGrid  ... OptM3 with GC (2021)
Angular Grid (max. ang.)         AngularGrid ... 3 (Lebedev-194)
Angular grid pruning method      GridPruning ... 4 (adaptive)
Weight generation scheme         WeightScheme... Becke
Basis function cutoff            BFCut       ... 1.0000e-11
Integration weight cutoff        WCut        ... 1.0000e-14
Angular grids for H and He will be reduced by one unit
Partially contracted basis set               ... on
Rotationally invariant grid construction     ... off

Total number of grid points                  ...    11732
Total number of batches                      ...      185
Average number of points per batch           ...       63
Average number of grid points per atom       ...     2933
UseSFitting                                  ... on

Time for X-Grid setup             =    0.253 sec

--------------
SCF ITERATIONS
--------------
ITER       Energy         Delta-E        Max-DP      RMS-DP      [F,P]     Damp
               ***  Starting incremental Fock matrix formation  ***
  0    -39.8356424545   0.000000000000 0.00071428  0.00001854  0.0011308 0.7000
  1    -39.8356457710  -0.000003316466 0.00062971  0.00001539  0.0007740 0.7000
                               ***Turning on DIIS***
  2    -39.8356479996  -0.000002228640 0.00167836  0.00003864  0.0004979 0.0000
               *** Restarting incremental Fock matrix formation ***
                                   *** Resetting DIIS ***
  3    -39.8356529811  -0.000004981476 0.00062059  0.00001358  0.0002298 0.0000
  4    -39.8356531414  -0.000000160311 0.00005760  0.00000261  0.0001070 0.0000
  5    -39.8356531986  -0.000000057168 0.00006141  0.00000170  0.0000276 0.0000
                 **** Energy Check signals convergence ****

               *****************************************************
               *                     SUCCESS                       *
               *           SCF CONVERGED AFTER   6 CYCLES          *
               *****************************************************

Old exchange energy                            =     -2.172286615 Eh
New exchange energy                            =     -2.172292894 Eh
Exchange energy change after final integration =     -0.000006279 Eh
Total energy after final integration           =    -39.835659483 Eh
Final COS-X integration done in                =     0.117 sec
Total Energy       :          -39.83565948 Eh           -1083.98340 eV
  Last Energy change         ...   -5.2467e-09  Tolerance :   1.0000e-08
  Last MAX-Density change    ...    0.0000e+00  Tolerance :   1.0000e-07
             **** THE GBW FILE WAS UPDATED (/beegfs/scratch/ispackman/PFAS_EPR_calcs/benchmark/JChemEd_CF3_radical/CH3_radical_115.0_degrees_IN-PROGRESS/CH3_radical_115.0_degrees.gbw) ****
             **** DENSITY /beegfs/scratch/ispackman/PFAS_EPR_calcs/benchmark/JChemEd_CF3_radical/CH3_radical_115.0_degrees_IN-PROGRESS/CH3_radical_115.0_degrees.scfp WAS UPDATED ****
             **** ENERGY FILE WAS UPDATED (/beegfs/scratch/ispackman/PFAS_EPR_calcs/benchmark/JChemEd_CF3_radical/CH3_radical_115.0_degrees_IN-PROGRESS/CH3_radical_115.0_degrees.en.tmp) ****
----------------------
UHF SPIN CONTAMINATION
----------------------

Warning: in a DFT calculation there is little theoretical justification to 
         calculate <S**2> as in Hartree-Fock theory. We will do it anyways
         but you should keep in mind that the values have only limited relevance

Expectation value of <S**2>     :     0.753335
Ideal value S*(S+1) for S=0.5   :     0.750000
Deviation                       :     0.003335

             **** THE GBW FILE WAS UPDATED (/beegfs/scratch/ispackman/PFAS_EPR_calcs/benchmark/JChemEd_CF3_radical/CH3_radical_115.0_degrees_IN-PROGRESS/CH3_radical_115.0_degrees.gbw) ****
             **** DENSITY /beegfs/scratch/ispackman/PFAS_EPR_calcs/benchmark/JChemEd_CF3_radical/CH3_radical_115.0_degrees_IN-PROGRESS/CH3_radical_115.0_degrees.scfp WAS UPDATED ****
Total SCF time: 0 days 0 hours 0 min 4 sec 

Maximum memory used throughout the entire SCF-calculation: 58.5 MB


-------------------------------------------------------------------------------
                          DFT DISPERSION CORRECTION                            
                                                                               
                              DFTD3 V3.1  Rev 1                                
                              USING zero damping                               
-------------------------------------------------------------------------------
-------------------------   ----------------
Dispersion correction           -0.000015437
-------------------------   ----------------


-------------------------   --------------------
FINAL SINGLE POINT ENERGY       -39.835674919904
-------------------------   --------------------



           ************************************************************
           *        Program running with 18 parallel MPI-processes    *
           *              working on a common directory               *
           ************************************************************
------------------------------------------------------------------------------
                         ORCA SCF GRADIENT CALCULATION
------------------------------------------------------------------------------

 ... reading COSX grid (gridx3)
Gradient of the Kohn-Sham DFT energy:
Kohn-Sham wavefunction type      ... UKS
Hartree-Fock exchange scaling    ...    0.196
Number of operators              ...    2
Number of atoms                  ...    4
Basis set dimensions             ...   64
Integral neglect threshold       ... 2.5e-11
Integral primitive cutoff        ... 2.5e-12
SHARK Integral package           ... ON

Nuc. rep. gradient       (SHARK) ... done (  0.0 sec)
HCore & Overlap gradient (SHARK) ... done (  0.0 sec)
RI-J gradient            (SHARK) ... done (  0.1 sec)
COSX-gradient                    ... done (  0.1 sec)
Exchange-correlation gradient    ... done
Dispersion correction            ... done

------------------
CARTESIAN GRADIENT
------------------

WARNING: THERE ARE 3 CONSTRAINED CARTESIAN COORDINATES
   1   C   :   -0.000042383   -0.000000034    0.020679929
   2   H   :   -0.001645838    0.000000022   -0.006906592
   3   H   :    0.000857997   -0.001414812   -0.006890808
   4   H   :    0.000857995    0.001414806   -0.006890765

Difference to translation invariance:
           :    0.0000277712   -0.0000000175   -0.0000082356

Difference to rotation invariance:
           :   -0.0000000669   -0.0000006795    0.0000000475

Norm of the cartesian gradient     ...    0.0240522894
RMS gradient                       ...    0.0069432979
MAX gradient                       ...    0.0206799292

-------
TIMINGS
-------

Total SCF gradient time            ...        0.606 sec

One electron gradient       ....       0.007 sec  (  1.1%)
RI-J Coulomb gradient       ....       0.123 sec  ( 20.3%)
COSX gradient               ....       0.117 sec  ( 19.3%)
XC gradient                 ....       0.064 sec  ( 10.5%)

Maximum memory used throughout the entire SCFGRAD-calculation: 33.6 MB
------------------------------------------------------------------------------
                         ORCA GEOMETRY RELAXATION STEP
------------------------------------------------------------------------------

Reading the OPT-File                    .... done
Getting information on internals        .... done
Copying old internal coords+grads       .... done
Making the new internal coordinates     .... (new redundants).... done
Validating the new internal coordinates .... (new redundants).... done
Calculating the B-matrix                .... done
Calculating the G,G- and P matrices     .... done
Transforming gradient to internals      .... done
Projecting the internal gradient        .... done
Number of atoms                         ....   4
Number of internal coordinates          ....   7
Current Energy                          ....   -39.835674920 Eh
Current gradient norm                   ....     0.024052289 Eh/bohr
Maximum allowed component of the step   ....  0.300
Current trust radius                    ....  0.300
Updating the Hessian (BFGS)             .... done
Forming the augmented Hessian           .... done
Diagonalizing the augmented Hessian     .... done
Last element of RFO vector              ....  0.999999980
Lowest eigenvalues of augmented Hessian:
 -0.000000015  0.368396411  0.373574723  0.373575605 1000.000000000
Length of the computed step             ....  0.000199639
The final length of the internal step   ....  0.000199639
Converting the step to cartesian space:
 Initial RMS(Int)=    0.0000754566
Transforming coordinates:
 Iter   0:  RMS(Cart)=    0.0000565041 RMS(Int)=    0.0000754566
 Iter   1:  RMS(Cart)=    0.0000000000 RMS(Int)=    0.0000000000
Imposing constraints:
 Iter   0:  RMS(Cart)=    0.0000000000 RMS(Int)=    0.0000000001
CONVERGED
done
Storing new coordinates                 .... done

                                .--------------------.
          ----------------------|Geometry convergence|-------------------------
          Item                value                   Tolerance       Converged
          ---------------------------------------------------------------------
          Energy change      -0.0000370682            0.0000050000      NO
          RMS gradient        0.0000277979            0.0001000000      YES
          MAX gradient        0.0000427533            0.0003000000      YES
          RMS step            0.0000754566            0.0020000000      YES
          MAX step            0.0001160526            0.0040000000      YES
          ........................................................
          Max(Bonds)      0.0001      Max(Angles)    0.00
          Max(Dihed)        0.00      Max(Improp)    0.00
          ---------------------------------------------------------------------

       Everything but the energy has converged. However, the energy
       appears to be close enough to convergence to make sure that the
       final evaluation at the new geometry represents the equilibrium energy.
       Convergence will therefore be signaled now


                    ***********************HURRAY********************
                    ***        THE OPTIMIZATION HAS CONVERGED     ***
                    *************************************************


    ---------------------------------------------------------------------------
                         Redundant Internal Coordinates

                          --- Optimized Parameters ---  
                            (Angstroem and degrees)

        Definition                    OldVal   dE/dq     Step     FinalVal
    ----------------------------------------------------------------------------
     1. B(H   1,C   0)                1.0843 -0.000042  0.0001    1.0844   
     2. B(H   2,C   0)                1.0843 -0.000043  0.0001    1.0843   
     3. B(H   3,C   0)                1.0843 -0.000043  0.0001    1.0843   
     4. A(H   2,C   0,H   3)          115.00 -0.006878   -0.00    115.00 C 
     5. A(H   1,C   0,H   2)          115.00 -0.002213    0.00    115.00 C 
     6. A(H   1,C   0,H   3)          115.00 -0.002213    0.00    115.00 C 
     7. I(H   1,H   3,H   2,C   0)     38.13  0.012921   -0.00     38.13   
    ----------------------------------------------------------------------------
                 *******************************************************
                 *** FINAL ENERGY EVALUATION AT THE STATIONARY POINT ***
                 ***               (AFTER    2 CYCLES)               ***
                 *******************************************************
---------------------------------
CARTESIAN COORDINATES (ANGSTROEM)
---------------------------------
  C     -0.000007    0.000000    0.000739
  H      1.056011    0.000000   -0.245547
  H     -0.528002    0.914515   -0.245546
  H     -0.528002   -0.914516   -0.245546

----------------------------
CARTESIAN COORDINATES (A.U.)
----------------------------
  NO LB      ZA    FRAG     MASS         X           Y           Z
   0 C     6.0000    0    12.011   -0.000013    0.000000    0.001397
   1 H     1.0000    0     1.008    1.995572    0.000000   -0.464017
   2 H     1.0000    0     1.008   -0.997779    1.728184   -0.464014
   3 H     1.0000    0     1.008   -0.997779   -1.728184   -0.464014

--------------------------------
INTERNAL COORDINATES (ANGSTROEM)
--------------------------------
 C      0   0   0     0.000000000000     0.00000000     0.00000000
 H      1   0   0     1.084357970202     0.00000000     0.00000000
 H      1   2   0     1.084331005324   115.00000000     0.00000000
 H      1   2   3     1.084331022827   115.00000000   137.05065816

---------------------------
INTERNAL COORDINATES (A.U.)
---------------------------
 C      0   0   0     0.000000000000     0.00000000     0.00000000
 H      1   0   0     2.049139594817     0.00000000     0.00000000
 H      1   2   0     2.049088638581   115.00000000     0.00000000
 H      1   2   3     2.049088671657   115.00000000   137.05065816

---------------------
BASIS SET INFORMATION
---------------------
There are 2 groups of distinct atoms

 Group   1 Type C   : 12s6p3d1f contracted to 6s3p3d1f pattern {621111/411/111/1}
 Group   2 Type H   : 5s2p contracted to 3s2p pattern {311/11}

Atom   0C    basis set group =>   1
Atom   1H    basis set group =>   2
Atom   2H    basis set group =>   2
Atom   3H    basis set group =>   2
---------------------------------
AUXILIARY/J BASIS SET INFORMATION
---------------------------------
There are 2 groups of distinct atoms

 Group   1 Type C   : 12s5p4d2f1g contracted to 6s4p3d1f1g pattern {711111/2111/211/2/1}
 Group   2 Type H   : 5s2p1d contracted to 3s1p1d pattern {311/2/1}

Atom   0C    basis set group =>   1
Atom   1H    basis set group =>   2
[...]

  NA   - Mulliken gross atomic population
  ZA   - Total nuclear charge
  QA   - Mulliken gross atomic charge
  VA   - Mayer's total valence
  BVA  - Mayer's bonded valence
  FA   - Mayer's free valence

  ATOM       NA         ZA         QA         VA         BVA        FA
  0 C      6.7210     6.0000    -0.7210     3.7467     2.9038     0.8429
  1 H      0.7598     1.0000     0.2402     1.0007     0.9993     0.0014
  2 H      0.7596     1.0000     0.2404     1.0005     0.9991     0.0014
  3 H      0.7596     1.0000     0.2404     1.0005     0.9991     0.0014

  Mayer bond orders larger than 0.100000
B(  0-C ,  1-H ) :   0.9681 B(  0-C ,  2-H ) :   0.9678 B(  0-C ,  3-H ) :   0.9678 


-------
TIMINGS
-------

Total SCF time: 0 days 0 hours 0 min 4 sec 

Total time                  ....       4.076 sec
Sum of individual times     ....       3.544 sec  ( 87.0%)

Fock matrix formation       ....       2.889 sec  ( 70.9%)
  Split-RI-J                ....       0.448 sec  ( 15.5% of F)
  Chain of spheres X        ....       0.768 sec  ( 26.6% of F)
  XC integration            ....       0.533 sec  ( 18.5% of F)
    Basis function eval.    ....       0.029 sec  (  5.4% of XC)
    Density eval.           ....       0.026 sec  (  4.9% of XC)
    XC-Functional eval.     ....       0.028 sec  (  5.3% of XC)
    XC-Potential eval.      ....       0.034 sec  (  6.4% of XC)
Diagonalization             ....       0.086 sec  (  2.1%)
Density matrix formation    ....       0.006 sec  (  0.1%)
Population analysis         ....       0.136 sec  (  3.3%)
Initial guess               ....       0.005 sec  (  0.1%)
Orbital Transformation      ....       0.000 sec  (  0.0%)
Orbital Orthonormalization  ....       0.002 sec  (  0.0%)
DIIS solution               ....       0.090 sec  (  2.2%)
Grid generation             ....       0.332 sec  (  8.1%)

Maximum memory used throughout the entire SCF-calculation: 58.5 MB


-------------------------------------------------------------------------------
                          DFT DISPERSION CORRECTION                            
                                                                               
                              DFTD3 V3.1  Rev 1                                
                              USING zero damping                               
-------------------------------------------------------------------------------
The omegaB97X-D3 functional is recognized. Fit by Chai et al.
Active option DFTDOPT                   ...         3   

molecular C6(AA) [au] = 106.971654 


            DFT-D V3
 parameters
 s6 scaling factor         :     1.0000 
 rs6 scaling factor        :     1.2810 
 s8 scaling factor         :     1.0000 
 rs8 scaling factor        :     1.0940 
 Damping factor alpha6     :    14.0000 
 Damping factor alpha8     :    16.0000 
 ad hoc parameters k1-k3   :    16.0000     1.3333    -4.0000 

 Edisp/kcal,au: -0.009691126214  -0.000015443791 
 E6   /kcal   :  -0.001511900 
 E8   /kcal   :  -0.008179227 
 % E8         :  84.399134173 

-------------------------   ----------------
Dispersion correction           -0.000015444
-------------------------   ----------------


-------------------------   --------------------
FINAL SINGLE POINT ENERGY       -39.835674928707
-------------------------   --------------------

                                *** OPTIMIZATION RUN DONE ***

                            ***************************************
                            *     ORCA property calculations      *
                            ***************************************

                                    ---------------------
                                    Active property flags
                                    ---------------------
   (+) Dipole Moment


------------------------------------------------------------------------------
                       ORCA ELECTRIC PROPERTIES CALCULATION
------------------------------------------------------------------------------

Dipole Moment Calculation                       ... on
Quadrupole Moment Calculation                   ... off
Polarizability Calculation                      ... off
GBWName                                         ... /beegfs/scratch/ispackman/PFAS_EPR_calcs/benchmark/JChemEd_CF3_radical/CH3_radical_115.0_degrees_IN-PROGRESS/CH3_radical_115.0_degrees.gbw
Electron density                                ... /beegfs/scratch/ispackman/PFAS_EPR_calcs/benchmark/JChemEd_CF3_radical/CH3_radical_115.0_degrees_IN-PROGRESS/CH3_radical_115.0_degrees.scfp
The origin for moment calculation is the CENTER OF MASS  = (-0.000010,  0.000000 -0.092212)

-------------
DIPOLE MOMENT
-------------
                                X             Y             Z
Electronic contribution:      0.00010      -0.00000       0.36683
Nuclear contribution   :      0.00002      -0.00000      -0.55376
                        -----------------------------------------
Total Dipole Moment    :      0.00012      -0.00000      -0.18693
                        -----------------------------------------
Magnitude (a.u.)       :      0.18693
Magnitude (Debye)      :      0.47515



--------------------
Rotational spectrum 
--------------------
 
Rotational constants in cm-1:     9.198800     9.198520     4.999045 
Rotational constants in MHz : 275773.090492 275764.680699 149867.595640 

 Dipole components along the rotational axes: 
x,y,z [a.u.] :    -0.000119    -0.000000    -0.186933 
x,y,z [Debye]:    -0.000302    -0.000000    -0.475146 

 


           ************************************************************
           *        Program running with 18 parallel MPI-processes    *
           *              working on a common directory               *
           ************************************************************

-------------------------------------------------------------------------------
                               ORCA SCF HESSIAN
-------------------------------------------------------------------------------

                   --------- SHARK INITIALIZATION DONE ---------

Hessian of the Kohn-Sham DFT energy:
Kohn-Sham wavefunction type                      ... UKS
Hartree-Fock exchange scaling                    ...    0.196
Number of operators                              ...    2
Number of atoms                                  ...    4
Basis set dimensions                             ...   64
Integral neglect threshold                       ... 2.5e-11
Integral primitive cutoff                        ... 2.5e-12

Setting up DFT Hessian calculations              ... 

HESS GRID
---------

General Integration Accuracy     IntAcc      ... 4.629
Radial Grid Type                 RadialGrid  ... OptM3 with GC (2021)
Angular Grid (max. ang.)         AngularGrid ... 5 (Lebedev-434)
Angular grid pruning method      GridPruning ... 4 (adaptive)
Weight generation scheme         WeightScheme... Becke
Basis function cutoff            BFCut       ... 1.0000e-11
Integration weight cutoff        WCut        ... 1.0000e-14
Angular grids for H and He will be reduced by one unit
Partially contracted basis set               ... off
Rotationally invariant grid construction     ... off

Total number of grid points                  ...    27255
Total number of batches                      ...      428
Average number of points per batch           ...       63
Average number of grid points per atom       ...     6814

Building densities                               ... done   (      0.0 sec)
Calculating rho(r) on the grid                   ... done   (      0.1 sec)
Building xc-kernel on the grid                   ... done   (      0.1 sec)
                                                     done   (      0.4 sec)

Nuclear repulsion Hessian  (SHARK)               ... done   (      0.0 sec)

----------------------------------------------
Forming right-hand sides of CP-SCF equations     ...
----------------------------------------------
One electron integral derivatives  (SHARK)       ... done   (      0.0 sec)
Transforming the overlap derivative matrices     ... done   (      0.0 sec)
Making the Q(x) pseudodensities                  ... done   (      0.0 sec)
Adding the E*S(x)*S(y) terms to the Hessian      ... done   (      0.0 sec)
Calculating energy weighted overlap derivatives  ... done   (      0.0 sec)
Two electron integral derivatives (SHARK-RI)     ... done   (      0.5 sec)
Exchange-correlation integral derivatives        ... done   (      0.4 sec)
tr(F(y)Q(x)) contribution to the Hessian         ... done   (      0.0 sec)
Response fock operator R(S(x)) (SHARK-RIJCOSX)   ... done   (      0.5 sec)
XC Response fock operator R(S(x))                ... done   (      0.1 sec)
tr(F(y)S(x)) contribution to the Hessian         ... done   (      0.0 sec)
Transforming and finalizing RHSs                 ... done   (      0.0 sec)

----------------------------------------------
Solving the CP-SCF equations (RIJCOSX)           ...
----------------------------------------------
     CP-SCF ITERATION   0:   8.3438e-02 (   0.3 sec   0/ 12 done)
     CP-SCF ITERATION   1:   2.7009e-02 (   0.3 sec   0/ 12 done)
     CP-SCF ITERATION   2:   6.2262e-03 (   0.3 sec   0/ 12 done)
     CP-SCF ITERATION   3:   1.7367e-03 (   0.3 sec   0/ 12 done)
     CP-SCF ITERATION   4:   3.7130e-04 (   0.3 sec   1/ 12 done)
     CP-SCF ITERATION   5:   7.8131e-05 (   0.3 sec  12/ 12 done)
                    *** THE CP-SCF HAS CONVERGED ***

                                                 ... done   (      2.0 sec)
Forming perturbed density Hessian contributions  ... done   (      0.0 sec)
2nd integral derivative contribs (SHARK-RI)      ... done   (      0.7 sec)
Exchange-correlation Hessian                     ... done   (      0.3 sec)
Dispersion correction in the Hessian             ... done   (      0.1 sec)
Dipole derivatives                               ... (center of mass: -0.000010,  0.000000 -0.092212)done   (      0.1 sec)

Total SCF Hessian time: 0 days 0 hours 0 min 6 sec 

Writing the Hessian file to the disk             ... done


Maximum memory used throughout the entire SCFHESS-calculation: 109.1 MB

-----------------------
VIBRATIONAL FREQUENCIES
-----------------------

Scaling factor for frequencies =  1.000000000  (already applied!)

   0:         0.00 cm**-1
   1:         0.00 cm**-1
   2:         0.00 cm**-1
   3:         0.00 cm**-1
   4:         0.00 cm**-1
   5:         0.00 cm**-1
   6:       939.98 cm**-1
   7:      1417.45 cm**-1
   8:      1424.64 cm**-1
   9:      3103.60 cm**-1
  10:      3252.92 cm**-1
  11:      3253.63 cm**-1


------------
NORMAL MODES
------------

These modes are the Cartesian displacements weighted by the diagonal matrix
M(i,i)=1/sqrt(m[i]) where m[i] is the mass of the displaced atom
Thus, these vectors are normalized but *not* orthogonal

                  0          1          2          3          4          5    
      0       0.000000   0.000000   0.000000   0.000000   0.000000   0.000000
      1       0.000000   0.000000   0.000000   0.000000   0.000000   0.000000
      2       0.000000   0.000000   0.000000   0.000000   0.000000   0.000000
      3       0.000000   0.000000   0.000000   0.000000   0.000000   0.000000
      4       0.000000   0.000000   0.000000   0.000000   0.000000   0.000000
      5       0.000000   0.000000   0.000000   0.000000   0.000000   0.000000
      6       0.000000   0.000000   0.000000   0.000000   0.000000   0.000000
      7       0.000000   0.000000   0.000000   0.000000   0.000000   0.000000
      8       0.000000   0.000000   0.000000   0.000000   0.000000   0.000000
      9       0.000000   0.000000   0.000000   0.000000   0.000000   0.000000
     10       0.000000   0.000000   0.000000   0.000000   0.000000   0.000000
     11       0.000000   0.000000   0.000000   0.000000   0.000000   0.000000
                  6          7          8          9         10         11    
      0      -0.000977  -0.086715  -0.000002   0.000199  -0.097297  -0.000030
      1      -0.000000   0.000002  -0.086785  -0.000000  -0.000030   0.097236
      2      -0.140175   0.001364   0.000000  -0.026541  -0.000019  -0.000000
      3       0.128678  -0.103010  -0.000002  -0.569328   0.790638   0.000240
      4       0.000001  -0.000016   0.790875  -0.000000  -0.000006   0.019741
      5       0.554938  -0.166071  -0.000004   0.105787  -0.180184  -0.000055
      6      -0.058516   0.568134   0.386421   0.283477   0.184251   0.351621
      7       0.116188   0.385676   0.121622  -0.490459  -0.352459  -0.589294
      8       0.557669   0.074914  -0.139245   0.105235   0.090157   0.156041
      9      -0.058517   0.568149  -0.386398   0.283478   0.184465  -0.351507
     10      -0.116188  -0.385680   0.121607   0.490461   0.352819  -0.589078
     11       0.557669   0.074908   0.139247   0.105235   0.090253  -0.155986


-----------
IR SPECTRUM
-----------

 Mode   freq       eps      Int      T**2         TX        TY        TZ
       cm**-1   L/(mol*cm) km/mol    a.u.
----------------------------------------------------------------------------
  6:    939.98   0.007848   39.66  0.002606  (-0.000109  0.000000  0.051045)
  7:   1417.45   0.000578    2.92  0.000127  ( 0.011271 -0.000000 -0.000483)
  8:   1424.64   0.000572    2.89  0.000125  ( 0.000000  0.011197 -0.000000)
  9:   3103.60   0.000009    0.04  0.000001  ( 0.000085 -0.000000 -0.000941)
 10:   3252.92   0.002304   11.64  0.000221  (-0.014867 -0.000005 -0.000016)
 11:   3253.63   0.002299   11.62  0.000221  (-0.000005  0.014849 -0.000000)

* The epsilon (eps) is given for a Dirac delta lineshape.
** The dipole moment derivative (T) already includes vibrational overlap.

The first frequency considered to be a vibration is 6
The total number of vibrations considered is 6


--------------------------
THERMOCHEMISTRY AT 298.15K
--------------------------

Temperature         ... 298.15 K
Pressure            ... 1.00 atm
Total Mass          ... 15.03 AMU

Throughout the following assumptions are being made:
  (1) The electronic state is orbitally nondegenerate
      but the spin degeneracy is treated
  (2) There are no thermally accessible electronically excited states
  (3) Hindered rotations indicated by low frequency modes are not
      treated as such but are treated as vibrations and this may
      cause some error
  (4) All equations used are the standard statistical mechanics
      equations for an ideal gas
  (5) All vibrations are strictly harmonic

freq.     939.98  E(vib)   ...       0.03 
freq.    1417.45  E(vib)   ...       0.00 
freq.    1424.64  E(vib)   ...       0.00 
freq.    3103.60  E(vib)   ...       0.00 
freq.    3252.92  E(vib)   ...       0.00 
freq.    3253.63  E(vib)   ...       0.00 

------------
INNER ENERGY
------------

The inner energy is: U= E(el) + E(ZPE) + E(vib) + E(rot) + E(trans)
    E(el)   - is the total energy from the electronic structure calculation
              = E(kin-el) + E(nuc-el) + E(el-el) + E(nuc-nuc)
    E(ZPE)  - the the zero temperature vibrational energy from the frequency calculation
    E(vib)  - the the finite temperature correction to E(ZPE) due to population
              of excited vibrational states
    E(rot)  - is the rotational thermal energy
    E(trans)- is the translational thermal energy

Summary of contributions to the inner energy U:
Electronic energy                ...    -39.83567493 Eh
Zero point energy                ...      0.03050973 Eh      19.15 kcal/mol
Thermal vibrational correction   ...      0.00006004 Eh       0.04 kcal/mol
Thermal rotational correction    ...      0.00141627 Eh       0.89 kcal/mol
Thermal translational correction ...      0.00141627 Eh       0.89 kcal/mol
-----------------------------------------------------------------------
Total thermal energy                    -39.80227262 Eh


Summary of corrections to the electronic energy:
(perhaps to be used in another calculation)
Total thermal correction                  0.00289258 Eh       1.82 kcal/mol
Non-thermal (ZPE) correction              0.03050973 Eh      19.15 kcal/mol
-----------------------------------------------------------------------
Total correction                          0.03340231 Eh      20.96 kcal/mol


--------
ENTHALPY
--------

The enthalpy is H = U + kB*T
                kB is Boltzmann's constant
Total free energy                 ...    -39.80227262 Eh 
Thermal Enthalpy correction       ...      0.00094421 Eh       0.59 kcal/mol
-----------------------------------------------------------------------
Total Enthalpy                    ...    -39.80132841 Eh


Note: Rotational entropy computed according to Herzberg 
Infrared and Raman Spectra, Chapter V,1, Van Nostrand Reinhold, 1945 
Point Group:  C3v, Symmetry Number:   3  
Rotational constants in cm-1:     9.198800     9.198520     4.999045 

Vibrational entropy computed according to the QRRHO of S. Grimme
Chem.Eur.J. 2012 18 9955


-------
ENTROPY
-------

The entropy contributions are T*S = T*(S(el)+S(vib)+S(rot)+S(trans))
     S(el)   - electronic entropy
     S(vib)  - vibrational entropy
     S(rot)  - rotational entropy
     S(trans)- translational entropy
The entropies will be listed as multiplied by the temperature to get
units of energy

Electronic entropy                ...      0.00065446 Eh      0.41 kcal/mol
Vibrational entropy               ...      0.00007223 Eh      0.05 kcal/mol
Rotational entropy                ...      0.00561862 Eh      3.53 kcal/mol
Translational entropy             ...      0.01618771 Eh     10.16 kcal/mol
-----------------------------------------------------------------------
Final entropy term                ...      0.02253302 Eh     14.14 kcal/mol

In case the symmetry of your molecule has not been determined correctly
or in case you have a reason to use a different symmetry number we print 
out the resulting rotational entropy values for sn=1,12 :
 --------------------------------------------------------
|  sn= 1 | S(rot)=       0.00665591 Eh      4.18 kcal/mol|
|  sn= 2 | S(rot)=       0.00600145 Eh      3.77 kcal/mol|
|  sn= 3 | S(rot)=       0.00561862 Eh      3.53 kcal/mol|
|  sn= 4 | S(rot)=       0.00534700 Eh      3.36 kcal/mol|
|  sn= 5 | S(rot)=       0.00513631 Eh      3.22 kcal/mol|
|  sn= 6 | S(rot)=       0.00496416 Eh      3.12 kcal/mol|
|  sn= 7 | S(rot)=       0.00481862 Eh      3.02 kcal/mol|
|  sn= 8 | S(rot)=       0.00469254 Eh      2.94 kcal/mol|
|  sn= 9 | S(rot)=       0.00458133 Eh      2.87 kcal/mol|
|  sn=10 | S(rot)=       0.00448185 Eh      2.81 kcal/mol|
|  sn=11 | S(rot)=       0.00439186 Eh      2.76 kcal/mol|
|  sn=12 | S(rot)=       0.00430971 Eh      2.70 kcal/mol|
 --------------------------------------------------------


-------------------
GIBBS FREE ENERGY
-------------------

The Gibbs free energy is G = H - T*S

Total enthalpy                    ...    -39.80132841 Eh 
Total entropy correction          ...     -0.02253302 Eh    -14.14 kcal/mol
-----------------------------------------------------------------------
Final Gibbs free energy         ...    -39.82386142 Eh

For completeness - the Gibbs free energy minus the electronic energy
G-E(el)                           ...      0.01181351 Eh      7.41 kcal/mol


Timings for individual modules:

Sum of individual times         ...       47.358 sec (=   0.789 min)
GTO integral calculation        ...        8.410 sec (=   0.140 min)  17.8 %
SCF iterations                  ...       23.261 sec (=   0.388 min)  49.1 %
SCF Gradient evaluation         ...        7.122 sec (=   0.119 min)  15.0 %
Geometry relaxation             ...        0.134 sec (=   0.002 min)   0.3 %
Analytical frequency calculation...        8.430 sec (=   0.141 min)  17.8 %
                             ****ORCA TERMINATED NORMALLY****
TOTAL RUN TIME: 0 days 0 hours 0 minutes 54 seconds 979 msec

slurmID:    32260121
totalRuntime[s]:    55.015747631
