
                                 *****************
                                 * O   R   C   A *
                                 *****************

                                            #,                                       
                                            ###                                      
                                            ####                                     
                                            #####                                    
                                            ######                                   
                                           ########,                                 
                                     ,,################,,,,,                         
                               ,,#################################,,                 
                          ,,##########################################,,             
                       ,#########################################, ''#####,          
                    ,#############################################,,   '####,        
                  ,##################################################,,,,####,       
                ,###########''''           ''''###############################       
              ,#####''   ,,,,##########,,,,          '''####'''          '####       
            ,##' ,,,,###########################,,,                        '##       
           ' ,,###''''                  '''############,,,                           
         ,,##''                                '''############,,,,        ,,,,,,###''
      ,#''                                            '''#######################'''  
     '                                                          ''''####''''         
             ,#######,   #######,   ,#######,      ##                                
            ,#'     '#,  ##    ##  ,#'     '#,    #''#        ######   ,####,        
            ##       ##  ##   ,#'  ##            #'  '#       #        #'  '#        
            ##       ##  #######   ##           ,######,      #####,   #    #        
            '#,     ,#'  ##    ##  '#,     ,#' ,#      #,         ##   #,  ,#        
             '#######'   ##     ##  '#######'  #'      '#     #####' # '####'        



                  #######################################################
                  #                        -***-                        #
                  #          Department of theory and spectroscopy      #
                  #    Directorship and core code : Frank Neese         #
                  #        Max Planck Institute fuer Kohlenforschung    #
                  #                Kaiser Wilhelm Platz 1               #
                  #                 D-45470 Muelheim/Ruhr               #
                  #                      Germany                        #
                  #                                                     #
                  #                  All rights reserved                #
                  #                        -***-                        #
                  #######################################################


                         Program Version 5.0.4 -  RELEASE  -


 With contributions from (in alphabetic order):
   Daniel Aravena         : Magnetic Suceptibility
   Michael Atanasov       : Ab Initio Ligand Field Theory (pilot matlab implementation)
   Alexander A. Auer      : GIAO ZORA, VPT2 properties, NMR spectrum
   Ute Becker             : Parallelization
   Giovanni Bistoni       : ED, misc. LED, open-shell LED, HFLD
   Martin Brehm           : Molecular dynamics
   Dmytro Bykov           : SCF Hessian
   Vijay G. Chilkuri      : MRCI spin determinant printing, contributions to CSF-ICE
   Dipayan Datta          : RHF DLPNO-CCSD density
   Achintya Kumar Dutta   : EOM-CC, STEOM-CC
   Dmitry Ganyushin       : Spin-Orbit,Spin-Spin,Magnetic field MRCI
   Miquel Garcia          : C-PCM and meta-GGA Hessian, CC/C-PCM, Gaussian charge scheme
   Yang Guo               : DLPNO-NEVPT2, F12-NEVPT2, CIM, IAO-localization
   Andreas Hansen         : Spin unrestricted coupled pair/coupled cluster methods
   Benjamin Helmich-Paris : MC-RPA, TRAH-SCF, COSX integrals
   Lee Huntington         : MR-EOM, pCC
   Robert Izsak           : Overlap fitted RIJCOSX, COSX-SCS-MP3, EOM
   Marcus Kettner         : VPT2
   Christian Kollmar      : KDIIS, OOCD, Brueckner-CCSD(T), CCSD density, CASPT2, CASPT2-K
   Simone Kossmann        : Meta GGA functionals, TD-DFT gradient, OOMP2, MP2 Hessian
   Martin Krupicka        : Initial AUTO-CI
   Lucas Lang             : DCDCAS
   Marvin Lechner         : AUTO-CI (C++ implementation), FIC-MRCC
   Dagmar Lenk            : GEPOL surface, SMD
   Dimitrios Liakos       : Extrapolation schemes; Compound Job, initial MDCI parallelization
   Dimitrios Manganas     : Further ROCIS development; embedding schemes
   Dimitrios Pantazis     : SARC Basis sets
   Anastasios Papadopoulos: AUTO-CI, single reference methods and gradients
   Taras Petrenko         : DFT Hessian,TD-DFT gradient, ASA, ECA, R-Raman, ABS, FL, XAS/XES, NRVS
   Peter Pinski           : DLPNO-MP2, DLPNO-MP2 Gradient
   Christoph Reimann      : Effective Core Potentials
   Marius Retegan         : Local ZFS, SOC
   Christoph Riplinger    : Optimizer, TS searches, QM/MM, DLPNO-CCSD(T), (RO)-DLPNO pert. Triples
   Tobias Risthaus        : Range-separated hybrids, TD-DFT gradient, RPA, STAB
   Michael Roemelt        : Original ROCIS implementation
   Masaaki Saitow         : Open-shell DLPNO-CCSD energy and density
   Barbara Sandhoefer     : DKH picture change effects
   Avijit Sen             : IP-ROCIS
   Kantharuban Sivalingam : CASSCF convergence, NEVPT2, FIC-MRCI
   Bernardo de Souza      : ESD, SOC TD-DFT
   Georgi Stoychev        : AutoAux, RI-MP2 NMR, DLPNO-MP2 response
   Willem Van den Heuvel  : Paramagnetic NMR
   Boris Wezisla          : Elementary symmetry handling
   Frank Wennmohs         : Technical directorship


 We gratefully acknowledge several colleagues who have allowed us to
 interface, adapt or use parts of their codes:
   Stefan Grimme, W. Hujo, H. Kruse, P. Pracht,  : VdW corrections, initial TS optimization,
                  C. Bannwarth, S. Ehlert          DFT functionals, gCP, sTDA/sTD-DF
   Ed Valeev, F. Pavosevic, A. Kumar             : LibInt (2-el integral package), F12 methods
   Garnet Chan, S. Sharma, J. Yang, R. Olivares  : DMRG
   Ulf Ekstrom                                   : XCFun DFT Library
   Mihaly Kallay                                 : mrcc  (arbitrary order and MRCC methods)
   Jiri Pittner, Ondrej Demel                    : Mk-CCSD
   Frank Weinhold                                : gennbo (NPA and NBO analysis)
   Christopher J. Cramer and Donald G. Truhlar   : smd solvation model
   Lars Goerigk                                  : TD-DFT with DH, B97 family of functionals
   V. Asgeirsson, H. Jonsson                     : NEB implementation
   FAccTs GmbH                                   : IRC, NEB, NEB-TS, DLPNO-Multilevel, CI-OPT
                                                   MM, QMMM, 2- and 3-layer-ONIOM, Crystal-QMMM,
                                                   LR-CPCM, SF, NACMEs, symmetry and pop. for TD-DFT,
                                                   nearIR, NL-DFT gradient (VV10), updates on ESD,
                                                   ML-optimized integration grids
   S Lehtola, MJT Oliveira, MAL Marques          : LibXC Library
   Liviu Ungur et al                             : ANISO software


 Your calculation uses the libint2 library for the computation of 2-el integrals
 For citations please refer to: http://libint.valeyev.net

 Your ORCA version has been built with support for libXC version: 5.1.0
 For citations please refer to: https://tddft.org/programs/libxc/

 This ORCA versions uses:
   CBLAS   interface :  Fast vector & matrix operations
   LAPACKE interface :  Fast linear algebra routines
   SCALAPACK package :  Parallel linear algebra routines
   Shared memory     :  Shared parallel matrices
   BLAS/LAPACK       :  OpenBLAS 0.3.15  USE64BITINT DYNAMIC_ARCH NO_AFFINITY SkylakeX SINGLE_THREADED
        Core in use  :  SkylakeX
   Copyright (c) 2011-2014, The OpenBLAS Project


Your calculation utilizes the atom-pairwise dispersion correction
with the zero-damping scheme (D30)
Cite in your paper:
S.Grimme, J.Antony, S.Ehrlich and H.Krieg, J.Chem.Phys., 132, (2010), 154104 
   

XCFun DFT library Copyright 2009-2010 Ulf Ekstrom and contributors.
See http://admol.org/xcfun for more information.
This is free software; see the source code for copying conditions.
There is ABSOLUTELY NO WARRANTY; not even for MERCHANTABILITY or FITNESS FOR A PARTICULAR PURPOSE.
For details see the documentation.
Scientific users of this library should cite U. Ekstrom, L. Visscher, R. Bast, A. J. Thorvaldsen and K. Ruud;
J.Chem.Theor.Comp. 2010, DOI: 10.1021/ct100117s
XCFun Version 0.99 

================================================================================

----- Orbital basis set information -----
Your calculation utilizes the basis: def2-TZVPD
   F. Weigend and R. Ahlrichs, Phys. Chem. Chem. Phys. 7, 3297 (2005).
   D. Rappoport and F. Furche, J. Chem. Phys. 133 134105 (2010).

----- AuxJ basis set information -----
Your calculation utilizes the auxiliary basis: def2/J
   F. Weigend, Phys. Chem. Chem. Phys. 8, 1057 (2006).

================================================================================
                                        WARNINGS
                       Please study these warnings very carefully!
================================================================================


WARNING: Geometry Optimization
  ===> : Switching off AutoStart
         For restart on a previous wavefunction, please use MOREAD

INFO   : the flag for use of the SHARK integral package has been found!

================================================================================
                                       INPUT FILE
================================================================================
NAME = /beegfs/scratch/ispackman/PFAS_EPR_calcs/benchmark/JChemEd_CF3_radical/CH3_radical_109.5_degrees_IN-PROGRESS/CH3_radical_109.5_degrees.inp
|  1> ! UKS TightSCF wB97x-D3 def2-TZVPD xyzfile opt freq
|  2> 
|  3> # CH3 radical 109.5 degrees fixed
|  4> 
|  5> %maxcore 1000
|  6> %pal
|  7> nprocs 18
|  8> end
|  9> 
| 10> %geom Constraints
| 11>         { A * 0 * C }
| 12>     end
| 13> end
| 14> * xyz 0 2
| 15> C 0.00 0.00 0.00
| 16> H 1.0184145589 0.0000000000 -0.3594882283
| 17> H -0.5092072794 0.8819728796 -0.3594882283
| 18> H -0.5092072794 -0.8819728796 -0.3594882283
| 19> **                         ****END OF INPUT****
================================================================================

                       *****************************
                       * Geometry Optimization Run *
                       *****************************

Geometry optimization settings:
Update method            Update   .... BFGS
Choice of coordinates    CoordSys .... Z-matrix Internals
Initial Hessian          InHess   .... Almoef's Model

Convergence Tolerances:
Energy Change            TolE     ....  5.0000e-06 Eh
Max. Gradient            TolMAXG  ....  3.0000e-04 Eh/bohr
RMS Gradient             TolRMSG  ....  1.0000e-04 Eh/bohr
Max. Displacement        TolMAXD  ....  4.0000e-03 bohr
RMS Displacement         TolRMSD  ....  2.0000e-03 bohr
Strict Convergence                ....  False
------------------------------------------------------------------------------
                        ORCA OPTIMIZATION COORDINATE SETUP
------------------------------------------------------------------------------

The optimization will be done in new redundant internal coordinates
Making redundant internal coordinates   ...  (new redundants) done
Evaluating the initial hessian          ...  (Almloef) done
Evaluating the coordinates              ...  done
Calculating the B-matrix                .... done
Calculating the G-matrix                .... done
Diagonalizing the G-matrix              .... done
Imposing constraints:
 Iter   0:  RMS(Cart)=    0.0000000000 RMS(Int)=    0.0000000000
CONVERGED
Will constrain atom 0 coordinate 1 
Will constrain atom 0 coordinate 2 
Will constrain atom 1 coordinate 2 
The first mode is                       ....    1
The number of degrees of freedom        ....    6
Storing new coordinates                 .... done

    -----------------------------------------------------------------
                    Redundant Internal Coordinates


    -----------------------------------------------------------------
         Definition                    Initial Value    Approx d2E/dq
    -----------------------------------------------------------------
      1. B(H   1,C   0)                  1.0800         0.373575   
      2. B(H   2,C   0)                  1.0800         0.373575   
      3. B(H   3,C   0)                  1.0800         0.373575   
      4. A(H   2,C   0,H   3)          109.5000         0.294224 C 
      5. A(H   1,C   0,H   2)          109.5000         0.294224 C 
      6. A(H   1,C   0,H   3)          109.5000         0.294224 C 
      7. I(H   1,H   3,H   2,C   0)     54.6636         0.004796   
    -----------------------------------------------------------------

Number of atoms                         .... 4
Number of degrees of freedom            .... 7

         *************************************************************
         *                GEOMETRY OPTIMIZATION CYCLE   1            *
         *************************************************************
---------------------------------
CARTESIAN COORDINATES (ANGSTROEM)
---------------------------------
  C      0.000000    0.000000    0.000000
  H      1.018415    0.000000   -0.359488
  H     -0.509207    0.881973   -0.359488
  H     -0.509207   -0.881973   -0.359488

----------------------------
CARTESIAN COORDINATES (A.U.)
----------------------------
  NO LB      ZA    FRAG     MASS         X           Y           Z
   0 C     6.0000    0    12.011    0.000000    0.000000    0.000000
   1 H     1.0000    0     1.008    1.924525    0.000000   -0.679334
   2 H     1.0000    0     1.008   -0.962262    1.666687   -0.679334
   3 H     1.0000    0     1.008   -0.962262   -1.666687   -0.679334

--------------------------------
INTERNAL COORDINATES (ANGSTROEM)
--------------------------------
 C      0   0   0     0.000000000000     0.00000000     0.00000000
 H      1   0   0     1.080000000030     0.00000000     0.00000000
 H      1   2   0     1.080000000014   109.50000000     0.00000000
 H      1   2   3     1.080000000014   109.50000000   120.07056370

---------------------------
INTERNAL COORDINATES (A.U.)
---------------------------
 C      0   0   0     0.000000000000     0.00000000     0.00000000
 H      1   0   0     2.040904224692     0.00000000     0.00000000
 H      1   2   0     2.040904224661   109.50000000     0.00000000
 H      1   2   3     2.040904224661   109.50000000   120.07056370

---------------------
BASIS SET INFORMATION
---------------------
There are 2 groups of distinct atoms

 Group   1 Type C   : 12s6p3d1f contracted to 6s3p3d1f pattern {621111/411/111/1}
 Group   2 Type H   : 5s2p contracted to 3s2p pattern {311/11}

Atom   0C    basis set group =>   1
Atom   1H    basis set group =>   2
Atom   2H    basis set group =>   2
Atom   3H    basis set group =>   2
---------------------------------
AUXILIARY/J BASIS SET INFORMATION
---------------------------------
There are 2 groups of distinct atoms

 Group   1 Type C   : 12s5p4d2f1g contracted to 6s4p3d1f1g pattern {711111/2111/211/2/1}
 Group   2 Type H   : 5s2p1d contracted to 3s1p1d pattern {311/2/1}

Atom   0C    basis set group =>   1
Atom   1H    basis set group =>   2
Atom   2H    basis set group =>   2
Atom   3H    basis set group =>   2


           ************************************************************
           *        Program running with 18 parallel MPI-processes    *
           *              working on a common directory               *
           ************************************************************
------------------------------------------------------------------------------
                           ORCA GTO INTEGRAL CALCULATION
                           -- RI-GTO INTEGRALS CHOSEN --
------------------------------------------------------------------------------
------------------------------------------------------------------------------
                   ___                                                        
                  /   \      - P O W E R E D   B Y -                         
                 /     \                                                     
                 |  |  |   _    _      __       _____    __    __             
                 |  |  |  | |  | |    /  \     |  _  \  |  |  /  |          
                  \  \/   | |  | |   /    \    | | | |  |  | /  /          
                 / \  \   | |__| |  /  /\  \   | |_| |  |  |/  /          
                |  |  |   |  __  | /  /__\  \  |    /   |      \           
                |  |  |   | |  | | |   __   |  |    \   |  |\   \          
                \     /   | |  | | |  |  |  |  | |\  \  |  | \   \       
                 \___/    |_|  |_| |__|  |__|  |_| \__\ |__|  \__/        
                                                                              
                      - O R C A' S   B I G   F R I E N D -                    
                                      &                                       
                       - I N T E G R A L  F E E D E R -                       
                                                                              
 v1 FN, 2020, v2 2021                                                         
------------------------------------------------------------------------------


Reading SHARK input file /beegfs/scratch/ispackman/PFAS_EPR_calcs/benchmark/JChemEd_CF3_radical/CH3_radical_109.5_degrees_IN-PROGRESS/CH3_radical_109.5_degrees.SHARKINP.tmp ... ok
----------------------
SHARK INTEGRAL PACKAGE
----------------------

Number of atoms                             ...      4
Number of basis functions                   ...     64
Number of shells                            ...     28
Maximum angular momentum                    ...      3
Integral batch strategy                     ... SHARK/LIBINT Hybrid
RI-J (if used) integral strategy            ... SPLIT-RIJ (Revised 2003 algorithm where possible)
Printlevel                                  ...      1
Contraction scheme used                     ... SEGMENTED contraction
Coulomb Range Separation                    ... NOT USED
Exchange Range Separation                   ... Long Range
   Mu parameter                             ...  0.250000
   Scaling (regular/separated)              ...  0.195728  0.804272
Finite Nucleus Model                        ... NOT USED
Auxiliary Coulomb fitting basis             ... AVAILABLE
   # of basis functions in Aux-J            ...     82
   # of shells in Aux-J                     ...     30
   Maximum angular momentum in Aux-J        ...      4
Auxiliary J/K fitting basis                 ... NOT available
Auxiliary Correlation fitting basis         ... NOT available
Auxiliary 'external' fitting basis          ... NOT available
Integral threshold                          ...     2.500000e-11
Primitive cut-off                           ...     2.500000e-12
Primitive pair pre-selection threshold      ...     2.500000e-12

Calculating pre-screening integrals         ... done (  0.0 sec) Dimension = 28
Organizing shell pair data                  ... done (  0.0 sec)
Shell pair information
Total number of shell pairs                 ...       406
Shell pairs after pre-screening             ...       406
Total number of primitive shell pairs       ...       977
Primitive shell pairs kept                  ...       944
          la=0 lb=0:    120 shell pairs
          la=1 lb=0:    135 shell pairs
          la=1 lb=1:     45 shell pairs
          la=2 lb=0:     45 shell pairs
          la=2 lb=1:     27 shell pairs
          la=2 lb=2:      6 shell pairs
          la=3 lb=0:     15 shell pairs
          la=3 lb=1:      9 shell pairs
          la=3 lb=2:      3 shell pairs
          la=3 lb=3:      1 shell pairs

Calculating one electron integrals          ... done (  0.0 sec)
Calculating RI/J V-Matrix + Cholesky decomp.... done (  0.2 sec)
Calculating Nuclear repulsion               ... done (  0.0 sec) ENN=      9.719609050336 Eh

SHARK setup successfully completed in   0.7 seconds

Maximum memory used throughout the entire GTOINT-calculation: 14.0 MB


           ************************************************************
           *        Program running with 18 parallel MPI-processes    *
           *              working on a common directory               *
           ************************************************************
-------------------------------------------------------------------------------
                                 ORCA SCF
-------------------------------------------------------------------------------

------------
SCF SETTINGS
------------
Hamiltonian:
 Density Functional     Method          .... DFT(GTOs)
 Exchange Functional    Exchange        .... WB97X-D3
 Correlation Functional Correlation     .... WB97X-D3
 Gradients option       PostSCFGGA      .... off
 Hybrid DFT is turned on
   Fraction HF Exchange ScalHFX         ....  0.195728
   Scaling of DF-GGA-X  ScalDFX         ....  0.000000
   Scaling of DF-GGA-C  ScalDFC         ....  1.000000
   Scaling of DF-LDA-C  ScalLDAC        ....  1.000000
   Perturbative correction              ....  0.000000
   Density functional embedding theory  .... OFF
 Long-range corrected/Screened/Range-Separated Hybrid DFT is turned on
   Amount of maximum screened exact exchange              ....  0.804272
   Range separation parameter mu (erf(mu*r12)/r12)        ....  0.250000
 RI-approximation to the Coulomb term is turned on
   Number of AuxJ basis functions       .... 82
   RIJ-COSX (HFX calculated with COS-X)).... on


General Settings:
 Integral files         IntName         .... /beegfs/scratch/ispackman/PFAS_EPR_calcs/benchmark/JChemEd_CF3_radical/CH3_radical_109.5_degrees_IN-PROGRESS/CH3_radical_109.5_degrees
 Hartree-Fock type      HFTyp           .... UHF
 Total Charge           Charge          ....    0
 Multiplicity           Mult            ....    2
 Number of Electrons    NEL             ....    9
 Basis Dimension        Dim             ....   64
 Nuclear Repulsion      ENuc            ....      9.7196090503 Eh

Convergence Acceleration:
 DIIS                   CNVDIIS         .... on
   Start iteration      DIISMaxIt       ....    12
   Startup error        DIISStart       ....  0.200000
   # of expansion vecs  DIISMaxEq       ....     5
   Bias factor          DIISBfac        ....   1.050
   Max. coefficient     DIISMaxC        ....  10.000
 Trust-Rad. Augm. Hess. CNVTRAH         .... auto
   Auto Start mean grad. ratio tolernc. ....  1.125000
   Auto Start start iteration           ....    20
   Auto Start num. interpolation iter.  ....    10
   Max. Number of Micro iterations      ....    16
   Max. Number of Macro iterations      .... Maxiter - #DIIS iter
   Number of Davidson start vectors     ....     2
   Converg. threshold I  (grad. norm)   ....   1.000e-05
   Converg. threshold II (energy diff.) ....   1.000e-08
   Grad. Scal. Fac. for Micro threshold ....   0.100
   Minimum threshold for Micro iter.    ....   0.010
   NR start threshold (gradient norm)   ....   0.001
   Initial trust radius                 ....   0.400
   Minimum AH scaling param. (alpha)    ....   1.000
   Maximum AH scaling param. (alpha)    .... 1000.000
   Orbital update algorithm             .... Taylor
   White noise on init. David. guess    .... on
   Maximum white noise                  ....   0.010
   Quad. conv. algorithm                .... NR
 SOSCF                  CNVSOSCF        .... off
 Level Shifting         CNVShift        .... on
   Level shift para.    LevelShift      ....    0.2500
   Turn off err/grad.   ShiftErr        ....    0.0010
 Zerner damping         CNVZerner       .... off
 Static damping         CNVDamp         .... on
   Fraction old density DampFac         ....    0.7000
   Max. Damping (<1)    DampMax         ....    0.9800
   Min. Damping (>=0)   DampMin         ....    0.0000
   Turn off err/grad.   DampErr         ....    0.1000
 Fernandez-Rico         CNVRico         .... off

SCF Procedure:
 Maximum # iterations   MaxIter         ....   125
 SCF integral mode      SCFMode         .... Direct
   Integral package                     .... SHARK and LIBINT hybrid scheme
 Reset frequency        DirectResetFreq ....    20
 Integral Threshold     Thresh          ....  2.500e-11 Eh
 Primitive CutOff       TCut            ....  2.500e-12 Eh

Convergence Tolerance:
 Convergence Check Mode ConvCheckMode   .... Total+1el-Energy
 Convergence forced     ConvForced      .... 0
 Energy Change          TolE            ....  1.000e-08 Eh
 1-El. energy change                    ....  1.000e-05 Eh
 DIIS Error             TolErr          ....  5.000e-07


Diagonalization of the overlap matrix:
Smallest eigenvalue                        ... 5.231e-05
Time for diagonalization                   ...    0.002 sec
Threshold for overlap eigenvalues          ... 1.000e-08
Number of eigenvalues below threshold      ... 0
Time for construction of square roots      ...    0.101 sec
Total time needed                          ...    0.104 sec

Time for model grid setup =    0.099 sec

------------------------------
INITIAL GUESS: MODEL POTENTIAL
------------------------------
Loading Hartree-Fock densities                     ... done
Calculating cut-offs                               ... done
Initializing the effective Hamiltonian             ... done
Setting up the integral package (SHARK)            ... done
Starting the Coulomb interaction                   ... done (   0.2 sec)
Reading the grid                                   ... done
Mapping shells                                     ... done
Starting the XC term evaluation                    ... done (   0.0 sec)
  promolecular density results
     # of electrons  =      8.998029422
     EX              =     -5.934132848
     EC              =     -0.259502017
     EX+EC           =     -6.193634865
Transforming the Hamiltonian                       ... done (   0.0 sec)
Diagonalizing the Hamiltonian                      ... done (   0.0 sec)
Back transforming the eigenvectors                 ... done (   0.0 sec)
Now organizing SCF variables                       ... done
                      ------------------
                      INITIAL GUESS DONE (   0.4 sec)
                      ------------------
-------------------
DFT GRID GENERATION
-------------------

General Integration Accuracy     IntAcc      ... 4.388
Radial Grid Type                 RadialGrid  ... OptM3 with GC (2021)
Angular Grid (max. ang.)         AngularGrid ... 4 (Lebedev-302)
Angular grid pruning method      GridPruning ... 4 (adaptive)
Weight generation scheme         WeightScheme... Becke
Basis function cutoff            BFCut       ... 1.0000e-11
Integration weight cutoff        WCut        ... 1.0000e-14
Angular grids for H and He will be reduced by one unit
Partially contracted basis set               ... off
Rotationally invariant grid construction     ... off

Total number of grid points                  ...    17043
Total number of batches                      ...      268
Average number of points per batch           ...       63
Average number of grid points per atom       ...     4261
Time for grid setup =    0.156 sec

--------------------
COSX GRID GENERATION
--------------------

GRIDX 1
-------
General Integration Accuracy     IntAcc      ... 3.816
Radial Grid Type                 RadialGrid  ... OptM3 with GC (2021)
Angular Grid (max. ang.)         AngularGrid ... 1 (Lebedev-50)
Angular grid pruning method      GridPruning ... 4 (adaptive)
Weight generation scheme         WeightScheme... Becke
Basis function cutoff            BFCut       ... 1.0000e-11
Integration weight cutoff        WCut        ... 1.0000e-14
Angular grids for H and He will be reduced by one unit
Partially contracted basis set               ... on
Rotationally invariant grid construction     ... off

Total number of grid points                  ...     2151
Total number of batches                      ...       36
Average number of points per batch           ...       59
Average number of grid points per atom       ...      538
UseSFitting                                  ... on

GRIDX 2
-------
General Integration Accuracy     IntAcc      ... 4.020
Radial Grid Type                 RadialGrid  ... OptM3 with GC (2021)
Angular Grid (max. ang.)         AngularGrid ... 2 (Lebedev-110)
Angular grid pruning method      GridPruning ... 4 (adaptive)
Weight generation scheme         WeightScheme... Becke
Basis function cutoff            BFCut       ... 1.0000e-11
Integration weight cutoff        WCut        ... 1.0000e-14
Angular grids for H and He will be reduced by one unit
Partially contracted basis set               ... on
Rotationally invariant grid construction     ... off

Total number of grid points                  ...     5052
Total number of batches                      ...       81
Average number of points per batch           ...       62
Average number of grid points per atom       ...     1263
UseSFitting                                  ... on

GRIDX 3
-------
General Integration Accuracy     IntAcc      ... 4.338
Radial Grid Type                 RadialGrid  ... OptM3 with GC (2021)
Angular Grid (max. ang.)         AngularGrid ... 3 (Lebedev-194)
Angular grid pruning method      GridPruning ... 4 (adaptive)
Weight generation scheme         WeightScheme... Becke
Basis function cutoff            BFCut       ... 1.0000e-11
Integration weight cutoff        WCut        ... 1.0000e-14
Angular grids for H and He will be reduced by one unit
Partially contracted basis set               ... on
Rotationally invariant grid construction     ... off

Total number of grid points                  ...    11733
Total number of batches                      ...      185
Average number of points per batch           ...       63
Average number of grid points per atom       ...     2933
UseSFitting                                  ... on

Time for X-Grid setup             =    0.655 sec

--------------
SCF ITERATIONS
--------------
ITER       Energy         Delta-E        Max-DP      RMS-DP      [F,P]     Damp
               ***  Starting incremental Fock matrix formation  ***
  0    -39.7918929762   0.000000000000 0.03839185  0.00092262  0.0776484 0.7000
  1    -39.8056229758  -0.013729999620 0.03794526  0.00082081  0.0496629 0.7000
                               ***Turning on DIIS***
  2    -39.8133386137  -0.007715637883 0.08576153  0.00186058  0.0285249 0.0000
  3    -39.8265622540  -0.013223640253 0.02390397  0.00053633  0.0195074 0.0000
  4    -39.8281432187  -0.001580964777 0.00958455  0.00017607  0.0034966 0.0000
  5    -39.8282104282  -0.000067209483 0.00791491  0.00014044  0.0015892 0.0000
  6    -39.8282308360  -0.000020407780 0.00781009  0.00013559  0.0006298 0.0000
               *** Restarting incremental Fock matrix formation ***
                                   *** Resetting DIIS ***
  7    -39.8282442082  -0.000013372185 0.00109323  0.00001844  0.0000809 0.0000
  8    -39.8282443366  -0.000000128417 0.00051942  0.00000902  0.0000370 0.0000
  9    -39.8282443712  -0.000000034633 0.00001671  0.00000075  0.0000140 0.0000
 10    -39.8282443731  -0.000000001906 0.00000790  0.00000022  0.0000052 0.0000
                 **** Energy Check signals convergence ****

               *****************************************************
               *                     SUCCESS                       *
               *           SCF CONVERGED AFTER  11 CYCLES          *
               *****************************************************

Old exchange energy                            =     -2.173871503 Eh
New exchange energy                            =     -2.173876857 Eh
Exchange energy change after final integration =     -0.000005353 Eh
Total energy after final integration           =    -39.828249727 Eh
Final COS-X integration done in                =     0.130 sec

----------------
TOTAL SCF ENERGY
----------------

Total Energy       :          -39.82824973 Eh           -1083.78177 eV

Components:
Nuclear Repulsion  :            9.71960905 Eh             264.48401 eV
Electronic Energy  :          -49.54785878 Eh           -1348.26578 eV
One Electron Energy:          -71.72143746 Eh           -1951.63953 eV
Two Electron Energy:           22.17357869 Eh             603.37375 eV
Max COSX asymmetry :            0.00000007 Eh               0.00000 eV

Virial components:
Potential Energy   :          -79.48102012 Eh           -2162.78851 eV
Kinetic Energy     :           39.65277039 Eh            1079.00674 eV
Virial Ratio       :            2.00442540


DFT components:
N(Alpha)           :        4.999999797862 electrons
N(Beta)            :        4.000000824956 electrons
N(Total)           :        9.000000622818 electrons
E(XC)              :       -4.315518721457 Eh       
DFET-embed. en.    :        0.000000000000 Eh       

---------------
SCF CONVERGENCE
---------------

  Last Energy change         ...   -3.1952e-10  Tolerance :   1.0000e-08
  Last MAX-Density change    ...    0.0000e+00  Tolerance :   1.0000e-07
  Last RMS-Density change    ...    0.0000e+00  Tolerance :   5.0000e-09
  Last DIIS Error            ...    1.2932e-06  Tolerance :   5.0000e-07

             **** THE GBW FILE WAS UPDATED (/beegfs/scratch/ispackman/PFAS_EPR_calcs/benchmark/JChemEd_CF3_radical/CH3_radical_109.5_degrees_IN-PROGRESS/CH3_radical_109.5_degrees.gbw) ****
             **** DENSITY /beegfs/scratch/ispackman/PFAS_EPR_calcs/benchmark/JChemEd_CF3_radical/CH3_radical_109.5_degrees_IN-PROGRESS/CH3_radical_109.5_degrees.scfp WAS UPDATED ****
             **** ENERGY FILE WAS UPDATED (/beegfs/scratch/ispackman/PFAS_EPR_calcs/benchmark/JChemEd_CF3_radical/CH3_radical_109.5_degrees_IN-PROGRESS/CH3_radical_109.5_degrees.en.tmp) ****
----------------------
UHF SPIN CONTAMINATION
----------------------

Warning: in a DFT calculation there is little theoretical justification to 
         calculate <S**2> as in Hartree-Fock theory. We will do it anyways
         but you should keep in mind that the values have only limited relevance

Expectation value of <S**2>     :     0.752994
Ideal value S*(S+1) for S=0.5   :     0.750000
Deviation                       :     0.002994

             **** THE GBW FILE WAS UPDATED (/beegfs/scratch/ispackman/PFAS_EPR_calcs/benchmark/JChemEd_CF3_radical/CH3_radical_109.5_degrees_IN-PROGRESS/CH3_radical_109.5_degrees.gbw) ****
             **** DENSITY /beegfs/scratch/ispackman/PFAS_EPR_calcs/benchmark/JChemEd_CF3_radical/CH3_radical_109.5_degrees_IN-PROGRESS/CH3_radical_109.5_degrees.scfp WAS UPDATED ****
----------------
ORBITAL ENERGIES
----------------
                 SPIN UP ORBITALS
  NO   OCC          E(Eh)            E(eV) 
   0   1.0000     -10.290382      -280.0155 
   1   1.0000      -0.810591       -22.0573 
   2   1.0000      -0.508337       -13.8326 
   3   1.0000      -0.508314       -13.8319 
   4   1.0000      -0.358906        -9.7663 
   5   0.0000       0.076145         2.0720 
   6   0.0000       0.161518         4.3951 
   7   0.0000       0.161528         4.3954 
   8   0.0000       0.195922         5.3313 
   9   0.0000       0.196737         5.3535 
  10   0.0000       0.196743         5.3536 
  11   0.0000       0.223489         6.0815 
  12   0.0000       0.254146         6.9157 
  13   0.0000       0.254151         6.9158 
  14   0.0000       0.312338         8.4992 
  15   0.0000       0.359232         9.7752 
  16   0.0000       0.359241         9.7755 
  17   0.0000       0.367773        10.0076 
  18   0.0000       0.374089        10.1795 
  19   0.0000       0.385722        10.4960 
  20   0.0000       0.385725        10.4961 
  21   0.0000       0.414990        11.2924 
  22   0.0000       0.414998        11.2927 
  23   0.0000       0.524171        14.2634 
  24   0.0000       0.551904        15.0181 
  25   0.0000       0.551908        15.0182 
  26   0.0000       0.562611        15.3094 
  27   0.0000       0.781678        21.2705 
  28   0.0000       0.796395        21.6710 
  29   0.0000       0.796398        21.6711 
  30   0.0000       0.877782        23.8857 
  31   0.0000       0.877787        23.8858 
  32   0.0000       1.007646        27.4194 
  33   0.0000       1.134444        30.8698 
  34   0.0000       1.134492        30.8711 
  35   0.0000       1.621706        44.1289 
  36   0.0000       1.710005        46.5316 
  37   0.0000       1.754986        47.7556 
  38   0.0000       1.767120        48.0858 
  39   0.0000       1.767132        48.0861 
  40   0.0000       1.925133        52.3855 
  41   0.0000       1.925182        52.3869 
  42   0.0000       2.162451        58.8433 
  43   0.0000       2.260154        61.5019 
  44   0.0000       2.329461        63.3878 
  45   0.0000       2.329548        63.3902 
  46   0.0000       2.542413        69.1826 
  47   0.0000       2.542463        69.1839 
  48   0.0000       2.720968        74.0413 
  49   0.0000       2.720980        74.0416 
  50   0.0000       2.860877        77.8484 
  51   0.0000       3.015865        82.0659 
  52   0.0000       3.161508        86.0290 
  53   0.0000       3.161577        86.0309 
  54   0.0000       3.285864        89.4129 
  55   0.0000       3.285870        89.4131 
  56   0.0000       3.470430        94.4352 
  57   0.0000       3.512755        95.5869 
  58   0.0000       3.633507        98.8728 
  59   0.0000       3.633510        98.8728 
  60   0.0000       4.401012       119.7576 
  61   0.0000       4.401089       119.7597 
  62   0.0000       4.576359       124.5290 
  63   0.0000      22.194308       603.9378 

                 SPIN DOWN ORBITALS
  NO   OCC          E(Eh)            E(eV) 
   0   1.0000     -10.279535      -279.7204 
   1   1.0000      -0.770772       -20.9738 
   2   1.0000      -0.494177       -13.4472 
   3   1.0000      -0.494111       -13.4455 
   4   0.0000      -0.012133        -0.3302 
   5   0.0000       0.085480         2.3260 
   6   0.0000       0.166197         4.5224 
   7   0.0000       0.166208         4.5227 
   8   0.0000       0.200340         5.4515 
   9   0.0000       0.200345         5.4517 
  10   0.0000       0.233895         6.3646 
  11   0.0000       0.239250         6.5103 
  12   0.0000       0.259218         7.0537 
  13   0.0000       0.259221         7.0538 
  14   0.0000       0.323581         8.8051 
  15   0.0000       0.370739        10.0883 
  16   0.0000       0.370754        10.0887 
  17   0.0000       0.374109        10.1800 
  18   0.0000       0.375545        10.2191 
  19   0.0000       0.392993        10.6939 
  20   0.0000       0.392994        10.6939 
  21   0.0000       0.424469        11.5504 
  22   0.0000       0.424471        11.5504 
  23   0.0000       0.552831        15.0433 
  24   0.0000       0.554329        15.0841 
  25   0.0000       0.554331        15.0841 
  26   0.0000       0.576777        15.6949 
  27   0.0000       0.791031        21.5251 
  28   0.0000       0.806701        21.9515 
  29   0.0000       0.806705        21.9516 
  30   0.0000       0.902928        24.5699 
  31   0.0000       0.902931        24.5700 
  32   0.0000       1.029437        28.0124 
  33   0.0000       1.142376        31.0856 
  34   0.0000       1.142437        31.0873 
  35   0.0000       1.685933        45.8766 
  36   0.0000       1.710772        46.5525 
  37   0.0000       1.771977        48.2179 
  38   0.0000       1.776210        48.3331 
  39   0.0000       1.776242        48.3340 
  40   0.0000       1.941289        52.8252 
  41   0.0000       1.941314        52.8258 
  42   0.0000       2.173180        59.1352 
  43   0.0000       2.268215        61.7213 
  44   0.0000       2.341085        63.7042 
  45   0.0000       2.341194        63.7071 
  46   0.0000       2.548333        69.3437 
  47   0.0000       2.548431        69.3463 
  48   0.0000       2.740116        74.5624 
  49   0.0000       2.740136        74.5629 
  50   0.0000       2.893477        78.7355 
  51   0.0000       3.058721        83.2320 
  52   0.0000       3.212357        87.4127 
  53   0.0000       3.212387        87.4135 
  54   0.0000       3.321629        90.3861 
  55   0.0000       3.321697        90.3880 
  56   0.0000       3.488098        94.9160 
  57   0.0000       3.549922        96.5983 
  58   0.0000       3.675266       100.0091 
  59   0.0000       3.675324       100.0106 
  60   0.0000       4.422593       120.3449 
  61   0.0000       4.422700       120.3478 
  62   0.0000       4.601840       125.2224 
  63   0.0000      22.214567       604.4891 

                    ********************************
                    * MULLIKEN POPULATION ANALYSIS *
                    ********************************

--------------------------------------------
MULLIKEN ATOMIC CHARGES AND SPIN POPULATIONS
--------------------------------------------
   0 C :   -0.706797    0.884248
   1 H :    0.235341    0.038540
   2 H :    0.235728    0.038606
   3 H :    0.235728    0.038606
Sum of atomic charges         :   -0.0000000
Sum of atomic spin populations:    1.0000000

-----------------------------------------------------
MULLIKEN REDUCED ORBITAL CHARGES AND SPIN POPULATIONS
-----------------------------------------------------
CHARGE
  0 C s       :     3.379208  s :     3.379208
      pz      :     0.932736  p :     3.285947
      px      :     1.176483
      py      :     1.176728
      dz2     :     0.001823  d :     0.040493
      dxz     :     0.010343
      dyz     :     0.010360
      dx2y2   :     0.008971
      dxy     :     0.008996
      f0      :     0.000426  f :     0.001149
      f+1     :     0.000126
      f-1     :     0.000125
      f+2     :    -0.000105
      f-2     :    -0.000103
      f+3     :     0.000679
      f-3     :     0.000000
  1 H s       :     0.717584  s :     0.717584
      pz      :     0.022887  p :     0.047075
      px      :     0.021454
      py      :     0.002733
  2 H s       :     0.717309  s :     0.717309
      pz      :     0.022807  p :     0.046963
      px      :     0.007400
      py      :     0.016756
  3 H s       :     0.717308  s :     0.717308
      pz      :     0.022808  p :     0.046964
      px      :     0.007400
      py      :     0.016757

SPIN
  0 C s       :    -0.002552  s :    -0.002552
      pz      :     0.880340  p :     0.894793
      px      :     0.007252
      py      :     0.007202
      dz2     :    -0.002053  d :    -0.007002
      dxz     :    -0.002516
      dyz     :    -0.002518
      dx2y2   :     0.000047
      dxy     :     0.000037
      f0      :    -0.000334  f :    -0.000991
      f+1     :    -0.000241
      f-1     :    -0.000241
      f+2     :    -0.000016
      f-2     :    -0.000016
      f+3     :    -0.000144
      f-3     :    -0.000000
  1 H s       :     0.012946  s :     0.012946
      pz      :     0.020881  p :     0.025594
      px      :     0.001574
      py      :     0.003139
  2 H s       :     0.013081  s :     0.013081
      pz      :     0.020811  p :     0.025525
      px      :     0.002753
      py      :     0.001961
  3 H s       :     0.013081  s :     0.013081
      pz      :     0.020811  p :     0.025525
      px      :     0.002753
      py      :     0.001961


                     *******************************
                     * LOEWDIN POPULATION ANALYSIS *
                     *******************************

-------------------------------------------
LOEWDIN ATOMIC CHARGES AND SPIN POPULATIONS
-------------------------------------------
   0 C :    0.058761    0.833622
   1 H :   -0.019605    0.055470
   2 H :   -0.019578    0.055454
   3 H :   -0.019578    0.055454

----------------------------------------------------
LOEWDIN REDUCED ORBITAL CHARGES AND SPIN POPULATIONS
----------------------------------------------------
CHARGE
  0 C s       :     2.912582  s :     2.912582
      pz      :     0.777158  p :     2.901971
      px      :     1.062426
      py      :     1.062387
      dz2     :     0.008211  d :     0.116644
      dxz     :     0.017099
      dyz     :     0.017102
      dx2y2   :     0.037109
      dxy     :     0.037123
      f0      :     0.001120  f :     0.010042
      f+1     :     0.000389
      f-1     :     0.000388
      f+2     :     0.002514
      f-2     :     0.002515
      f+3     :     0.003116
      f-3     :     0.000000
  1 H s       :     0.758712  s :     0.758712
      pz      :     0.068203  p :     0.260893
      px      :     0.123020
      py      :     0.069671
  2 H s       :     0.758705  s :     0.758705
      pz      :     0.068187  p :     0.260873
      px      :     0.082995
      py      :     0.109691
  3 H s       :     0.758705  s :     0.758705
      pz      :     0.068187  p :     0.260873
      px      :     0.082995
      py      :     0.109691

SPIN
  0 C s       :     0.071901  s :     0.071901
      pz      :     0.736454  p :     0.770257
      px      :     0.016888
      py      :     0.016916
      dz2     :     0.000044  d :    -0.007862
      dxz     :    -0.002109
      dyz     :    -0.002108
      dx2y2   :    -0.001839
      dxy     :    -0.001850
      f0      :    -0.000225  f :    -0.000674
      f+1     :    -0.000194
      f-1     :    -0.000194
      f+2     :    -0.000126
      f-2     :    -0.000126
      f+3     :     0.000191
      f-3     :    -0.000000
  1 H s       :    -0.006176  s :    -0.006176
      pz      :     0.059129  p :     0.061645
      px      :     0.003169
      py      :    -0.000653
  2 H s       :    -0.006177  s :    -0.006177
      pz      :     0.059116  p :     0.061631
      px      :     0.000307
      py      :     0.002208
  3 H s       :    -0.006177  s :    -0.006177
      pz      :     0.059116  p :     0.061631
      px      :     0.000307
      py      :     0.002208


                      *****************************
                      * MAYER POPULATION ANALYSIS *
                      *****************************

  NA   - Mulliken gross atomic population
  ZA   - Total nuclear charge
  QA   - Mulliken gross atomic charge
  VA   - Mayer's total valence
  BVA  - Mayer's bonded valence
  FA   - Mayer's free valence

  ATOM       NA         ZA         QA         VA         BVA        FA
  0 C      6.7068     6.0000    -0.7068     3.7797     2.9657     0.8140
  1 H      0.7647     1.0000     0.2353     1.0103     1.0089     0.0014
  2 H      0.7643     1.0000     0.2357     1.0098     1.0084     0.0014
  3 H      0.7643     1.0000     0.2357     1.0098     1.0084     0.0014

  Mayer bond orders larger than 0.100000
B(  0-C ,  1-H ) :   0.9889 B(  0-C ,  2-H ) :   0.9884 B(  0-C ,  3-H ) :   0.9884 


-------
TIMINGS
-------

Total SCF time: 0 days 0 hours 0 min 19 sec 

Total time                  ....      19.228 sec
Sum of individual times     ....      16.981 sec  ( 88.3%)

Fock matrix formation       ....      13.774 sec  ( 71.6%)
  Split-RI-J                ....       1.299 sec  (  9.4% of F)
  Chain of spheres X        ....       1.553 sec  ( 11.3% of F)
  XC integration            ....       2.839 sec  ( 20.6% of F)
    Basis function eval.    ....       0.051 sec  (  1.8% of XC)
    Density eval.           ....       0.065 sec  (  2.3% of XC)
    XC-Functional eval.     ....       0.067 sec  (  2.4% of XC)
    XC-Potential eval.      ....       0.072 sec  (  2.5% of XC)
Diagonalization             ....       0.240 sec  (  1.2%)
Density matrix formation    ....       0.010 sec  (  0.1%)
Population analysis         ....       0.389 sec  (  2.0%)
Initial guess               ....       0.334 sec  (  1.7%)
Orbital Transformation      ....       0.000 sec  (  0.0%)
Orbital Orthonormalization  ....       0.000 sec  (  0.0%)
DIIS solution               ....       1.324 sec  (  6.9%)
Grid generation             ....       0.911 sec  (  4.7%)

Maximum memory used throughout the entire SCF-calculation: 58.5 MB


-------------------------------------------------------------------------------
                          DFT DISPERSION CORRECTION                            
                                                                               
                              DFTD3 V3.1  Rev 1                                
                              USING zero damping                               
-------------------------------------------------------------------------------
The omegaB97X-D3 functional is recognized. Fit by Chai et al.
Active option DFTDOPT                   ...         3   

molecular C6(AA) [au] = 106.960888 


            DFT-D V3
 parameters
 s6 scaling factor         :     1.0000 
 rs6 scaling factor        :     1.2810 
 s8 scaling factor         :     1.0000 
 rs8 scaling factor        :     1.0940 
 Damping factor alpha6     :    14.0000 
 Damping factor alpha8     :    16.0000 
 ad hoc parameters k1-k3   :    16.0000     1.3333    -4.0000 

 Edisp/kcal,au: -0.007279767947  -0.000011601047 
 E6   /kcal   :  -0.001134343 
 E8   /kcal   :  -0.006145425 
 % E8         :  84.417862659 

-------------------------   ----------------
Dispersion correction           -0.000011601
-------------------------   ----------------


-------------------------   --------------------
FINAL SINGLE POINT ENERGY       -39.828261327849
-------------------------   --------------------



           ************************************************************
           *        Program running with 18 parallel MPI-processes    *
           *              working on a common directory               *
           ************************************************************
------------------------------------------------------------------------------
                         ORCA SCF GRADIENT CALCULATION
------------------------------------------------------------------------------

 ... reading COSX grid (gridx3)
Gradient of the Kohn-Sham DFT energy:
Kohn-Sham wavefunction type      ... UKS
Hartree-Fock exchange scaling    ...    0.196
Number of operators              ...    2
Number of atoms                  ...    4
Basis set dimensions             ...   64
Integral neglect threshold       ... 2.5e-11
Integral primitive cutoff        ... 2.5e-12
SHARK Integral package           ... ON

Nuc. rep. gradient       (SHARK) ... done (  0.0 sec)
HCore & Overlap gradient (SHARK) ... done (  0.0 sec)
RI-J gradient            (SHARK) ... done (  0.2 sec)
COSX-gradient                    ... done (  0.1 sec)
Exchange-correlation gradient    ... done
Dispersion correction            ... done

------------------
CARTESIAN GRADIENT
------------------

WARNING: THERE ARE 3 CONSTRAINED CARTESIAN COORDINATES
   1   C   :    0.000065741   -0.000000008    0.036694492
   2   H   :   -0.011042886   -0.000000000   -0.012232263
   3   H   :    0.005488789   -0.009609529   -0.012244787
   4   H   :    0.005488788    0.009609534   -0.012244753

Difference to translation invariance:
           :    0.0000004321   -0.0000000026   -0.0000273106

Difference to rotation invariance:
           :   -0.0000000528    0.0000202979   -0.0000000082

Norm of the cartesian gradient     ...    0.0465066903
RMS gradient                       ...    0.0134253251
MAX gradient                       ...    0.0366944923

-------
TIMINGS
-------

Total SCF gradient time            ...        0.828 sec

One electron gradient       ....       0.006 sec  (  0.8%)
RI-J Coulomb gradient       ....       0.165 sec  ( 20.0%)
COSX gradient               ....       0.145 sec  ( 17.6%)
XC gradient                 ....       0.127 sec  ( 15.4%)

Maximum memory used throughout the entire SCFGRAD-calculation: 33.6 MB
------------------------------------------------------------------------------
                         ORCA GEOMETRY RELAXATION STEP
------------------------------------------------------------------------------

Reading the OPT-File                    .... done
Getting information on internals        .... done
Copying old internal coords+grads       .... done
Making the new internal coordinates     .... (new redundants).... done
Validating the new internal coordinates .... (new redundants).... done
Calculating the B-matrix                .... done
Calculating the G,G- and P matrices     .... done
Transforming gradient to internals      .... done
Projecting the internal gradient        .... done
Number of atoms                         ....   4
Number of internal coordinates          ....   7
Current Energy                          ....   -39.828261328 Eh
Current gradient norm                   ....     0.046506690 Eh/bohr
Maximum allowed component of the step   ....  0.300
Current trust radius                    ....  0.300
Evaluating the initial hessian          ....  (Almloef) done
Projecting the Hessian                  .... done
Forming the augmented Hessian           .... done
Diagonalizing the augmented Hessian     .... done
Last element of RFO vector              ....  0.999566834
Lowest eigenvalues of augmented Hessian:
 -0.000324131  0.373574723  0.373574723  0.373898855 1000.000000000
Length of the computed step             ....  0.029443094
The final length of the internal step   ....  0.029443094
Converting the step to cartesian space:
 Initial RMS(Int)=    0.0111284434
Transforming coordinates:
 Iter   0:  RMS(Cart)=    0.0081386902 RMS(Int)=    0.0111284434
 Iter   1:  RMS(Cart)=    0.0000000000 RMS(Int)=    0.0000000000
Imposing constraints:
 Iter   0:  RMS(Cart)=    0.0000000002 RMS(Int)=    0.0000000006
CONVERGED
done
Storing new coordinates                 .... done

                                .--------------------.
          ----------------------|Geometry convergence|-------------------------
          Item                value                   Tolerance       Converged
          ---------------------------------------------------------------------
          RMS gradient        0.0041609122            0.0001000000      NO
          MAX gradient        0.0063610451            0.0003000000      NO
          RMS step            0.0111284434            0.0020000000      NO
          MAX step            0.0170127430            0.0040000000      NO
          ........................................................
          Max(Bonds)      0.0090      Max(Angles)    0.00
          Max(Dihed)        0.00      Max(Improp)    0.00
          ---------------------------------------------------------------------

The optimization has not yet converged - more geometry cycles are needed


    ---------------------------------------------------------------------------
                         Redundant Internal Coordinates
                            (Angstroem and degrees)

        Definition                    Value    dE/dq     Step     New-Value
    ----------------------------------------------------------------------------
     1. B(H   1,C   0)                1.0800 -0.006346  0.0090    1.0890   
     2. B(H   2,C   0)                1.0800 -0.006361  0.0090    1.0890   
     3. B(H   3,C   0)                1.0800 -0.006361  0.0090    1.0890   
     4. A(H   2,C   0,H   3)          109.50 -0.019184   -0.00    109.50 C 
     5. A(H   1,C   0,H   2)          109.50 -0.007129   -0.00    109.50 C 
     6. A(H   1,C   0,H   3)          109.50 -0.007129    0.00    109.50 C 
     7. I(H   1,H   3,H   2,C   0)     54.66  0.023896   -0.00     54.66   
    ----------------------------------------------------------------------------

         *************************************************************
         *                GEOMETRY OPTIMIZATION CYCLE   2            *
         *************************************************************
---------------------------------
CARTESIAN COORDINATES (ANGSTROEM)
---------------------------------
  C      0.000006    0.000000    0.002246
  H      1.026888    0.000000   -0.360235
  H     -0.513447    0.889325   -0.360237
  H     -0.513447   -0.889325   -0.360237

----------------------------
CARTESIAN COORDINATES (A.U.)
----------------------------
  NO LB      ZA    FRAG     MASS         X           Y           Z
   0 C     6.0000    0    12.011    0.000011    0.000000    0.004244
   1 H     1.0000    0     1.008    1.940537    0.000000   -0.680746
   2 H     1.0000    0     1.008   -0.970274    1.680580   -0.680750
   3 H     1.0000    0     1.008   -0.970274   -1.680581   -0.680750

--------------------------------
INTERNAL COORDINATES (ANGSTROEM)
--------------------------------
 C      0   0   0     0.000000000000     0.00000000     0.00000000
 H      1   0   0     1.088980898487     0.00000000     0.00000000
 H      1   2   0     1.089002743240   109.49999999     0.00000000
 H      1   2   3     1.089002755867   109.49999999   120.07056365

---------------------------
INTERNAL COORDINATES (A.U.)
---------------------------
 C      0   0   0     0.000000000000     0.00000000     0.00000000
 H      1   0   0     2.057875663212     0.00000000     0.00000000
 H      1   2   0     2.057916943812   109.49999999     0.00000000
 H      1   2   3     2.057916967674   109.49999999   120.07056365



           ************************************************************
           *        Program running with 18 parallel MPI-processes    *
           *              working on a common directory               *
           ************************************************************
------------------------------------------------------------------------------
                   ___                                                        
                  /   \      - P O W E R E D   B Y -                         
                 /     \                                                     
                 |  |  |   _    _      __       _____    __    __             
                 |  |  |  | |  | |    /  \     |  _  \  |  |  /  |          
                  \  \/   | |  | |   /    \    | | | |  |  | /  /          
                 / \  \   | |__| |  /  /\  \   | |_| |  |  |/  /          
                |  |  |   |  __  | /  /__\  \  |    /   |      \           
                |  |  |   | |  | | |   __   |  |    \   |  |\   \          
                \     /   | |  | | |  |  |  |  | |\  \  |  | \   \       
                 \___/    |_|  |_| |__|  |__|  |_| \__\ |__|  \__/        
                                                                              
                      - O R C A' S   B I G   F R I E N D -                    
                                      &                                       
                       - I N T E G R A L  F E E D E R -                       
                                                                              
 v1 FN, 2020, v2 2021                                                         
------------------------------------------------------------------------------


Reading SHARK input file /beegfs/scratch/ispackman/PFAS_EPR_calcs/benchmark/JChemEd_CF3_radical/CH3_radical_109.5_degrees_IN-PROGRESS/CH3_radical_109.5_degrees.SHARKINP.tmp ... ok
----------------------
SHARK INTEGRAL PACKAGE
----------------------

Number of atoms                             ...      4
Number of basis functions                   ...     64
Number of shells                            ...     28
Maximum angular momentum                    ...      3
Integral batch strategy                     ... SHARK/LIBINT Hybrid
RI-J (if used) integral strategy            ... SPLIT-RIJ (Revised 2003 algorithm where possible)
Printlevel                                  ...      1
Contraction scheme used                     ... SEGMENTED contraction
Coulomb Range Separation                    ... NOT USED
Exchange Range Separation                   ... Long Range
   Mu parameter                             ...  0.250000
   Scaling (regular/separated)              ...  0.195728  0.804272
Finite Nucleus Model                        ... NOT USED
Auxiliary Coulomb fitting basis             ... AVAILABLE
   # of basis functions in Aux-J            ...     82
   # of shells in Aux-J                     ...     30
   Maximum angular momentum in Aux-J        ...      4
Auxiliary J/K fitting basis                 ... NOT available
Auxiliary Correlation fitting basis         ... NOT available
Auxiliary 'external' fitting basis          ... NOT available
Integral threshold                          ...     2.500000e-11
Primitive cut-off                           ...     2.500000e-12
Primitive pair pre-selection threshold      ...     2.500000e-12

Calculating pre-screening integrals         ... done (  0.0 sec) Dimension = 28
Organizing shell pair data                  ... done (  0.0 sec)
Shell pair information
Total number of shell pairs                 ...       406
Shell pairs after pre-screening             ...       406
Total number of primitive shell pairs       ...       977
Primitive shell pairs kept                  ...       944
          la=0 lb=0:    120 shell pairs
          la=1 lb=0:    135 shell pairs
          la=1 lb=1:     45 shell pairs
          la=2 lb=0:     45 shell pairs
          la=2 lb=1:     27 shell pairs
          la=2 lb=2:      6 shell pairs
          la=3 lb=0:     15 shell pairs
          la=3 lb=1:      9 shell pairs
          la=3 lb=2:      3 shell pairs
          la=3 lb=3:      1 shell pairs

Calculating one electron integrals          ... done (  0.0 sec)
Calculating RI/J V-Matrix + Cholesky decomp.... done (  0.1 sec)
Calculating Nuclear repulsion               ... done (  0.0 sec) ENN=      9.639321837936 Eh

SHARK setup successfully completed in   0.6 seconds

Maximum memory used throughout the entire GTOINT-calculation: 14.0 MB


           ************************************************************
           *        Program running with 18 parallel MPI-processes    *
           *              working on a common directory               *
           ************************************************************

Diagonalization of the overlap matrix:
Smallest eigenvalue                        ... 5.544e-05
Time for diagonalization                   ...    0.002 sec
Threshold for overlap eigenvalues          ... 1.000e-08
Number of eigenvalues below threshold      ... 0
Time for construction of square roots      ...    0.064 sec
Total time needed                          ...    0.068 sec

-------------------
DFT GRID GENERATION
-------------------

General Integration Accuracy     IntAcc      ... 4.388
Radial Grid Type                 RadialGrid  ... OptM3 with GC (2021)
Angular Grid (max. ang.)         AngularGrid ... 4 (Lebedev-302)
Angular grid pruning method      GridPruning ... 4 (adaptive)
Weight generation scheme         WeightScheme... Becke
Basis function cutoff            BFCut       ... 1.0000e-11
Integration weight cutoff        WCut        ... 1.0000e-14
Angular grids for H and He will be reduced by one unit
Partially contracted basis set               ... off
Rotationally invariant grid construction     ... off

Total number of grid points                  ...    17046
Total number of batches                      ...      269
Average number of points per batch           ...       63
Average number of grid points per atom       ...     4262
Time for grid setup =    0.176 sec

--------------------
COSX GRID GENERATION
--------------------

GRIDX 1
-------
General Integration Accuracy     IntAcc      ... 3.816
Radial Grid Type                 RadialGrid  ... OptM3 with GC (2021)
Angular Grid (max. ang.)         AngularGrid ... 1 (Lebedev-50)
Angular grid pruning method      GridPruning ... 4 (adaptive)
Weight generation scheme         WeightScheme... Becke
Basis function cutoff            BFCut       ... 1.0000e-11
Integration weight cutoff        WCut        ... 1.0000e-14
Angular grids for H and He will be reduced by one unit
Partially contracted basis set               ... on
Rotationally invariant grid construction     ... off

Total number of grid points                  ...     2151
Total number of batches                      ...       36
Average number of points per batch           ...       59
Average number of grid points per atom       ...      538
UseSFitting                                  ... on

GRIDX 2
-------
General Integration Accuracy     IntAcc      ... 4.020
Radial Grid Type                 RadialGrid  ... OptM3 with GC (2021)
Angular Grid (max. ang.)         AngularGrid ... 2 (Lebedev-110)
Angular grid pruning method      GridPruning ... 4 (adaptive)
Weight generation scheme         WeightScheme... Becke
Basis function cutoff            BFCut       ... 1.0000e-11
Integration weight cutoff        WCut        ... 1.0000e-14
Angular grids for H and He will be reduced by one unit
Partially contracted basis set               ... on
Rotationally invariant grid construction     ... off

Total number of grid points                  ...     5052
Total number of batches                      ...       81
Average number of points per batch           ...       62
Average number of grid points per atom       ...     1263
UseSFitting                                  ... on

GRIDX 3
-------
General Integration Accuracy     IntAcc      ... 4.338
Radial Grid Type                 RadialGrid  ... OptM3 with GC (2021)
Angular Grid (max. ang.)         AngularGrid ... 3 (Lebedev-194)
Angular grid pruning method      GridPruning ... 4 (adaptive)
Weight generation scheme         WeightScheme... Becke
Basis function cutoff            BFCut       ... 1.0000e-11
Integration weight cutoff        WCut        ... 1.0000e-14
Angular grids for H and He will be reduced by one unit
Partially contracted basis set               ... on
Rotationally invariant grid construction     ... off

Total number of grid points                  ...    11733
Total number of batches                      ...      185
Average number of points per batch           ...       63
Average number of grid points per atom       ...     2933
UseSFitting                                  ... on

Time for X-Grid setup             =    0.644 sec

--------------
SCF ITERATIONS
--------------
ITER       Energy         Delta-E        Max-DP      RMS-DP      [F,P]     Damp
               ***  Starting incremental Fock matrix formation  ***
  0    -39.8283606334   0.000000000000 0.00306138  0.00005946  0.0023164 0.7000
  1    -39.8283755069  -0.000014873474 0.00270643  0.00005149  0.0015764 0.7000
                               ***Turning on DIIS***
  2    -39.8283854778  -0.000009970898 0.00714153  0.00013371  0.0010406 0.0000
  3    -39.8284074687  -0.000021990885 0.00207838  0.00003885  0.0004729 0.0000
               *** Restarting incremental Fock matrix formation ***
                                   *** Resetting DIIS ***
  4    -39.8284084897  -0.000001021008 0.00020401  0.00000754  0.0001961 0.0000
  5    -39.8284086635  -0.000000173784 0.00020722  0.00000431  0.0001240 0.0000
  6    -39.8284087321  -0.000000068624 0.00004350  0.00000182  0.0000222 0.0000
                 **** Energy Check signals convergence ****

               *****************************************************
               *                     SUCCESS                       *
               *           SCF CONVERGED AFTER   7 CYCLES          *
               *****************************************************

Old exchange energy                            =     -2.171433694 Eh
New exchange energy                            =     -2.171439197 Eh
Exchange energy change after final integration =     -0.000005502 Eh
Total energy after final integration           =    -39.828414242 Eh
Final COS-X integration done in                =     0.137 sec
Total Energy       :          -39.82841424 Eh           -1083.78625 eV
  Last Energy change         ...   -6.9475e-09  Tolerance :   1.0000e-08
  Last MAX-Density change    ...    0.0000e+00  Tolerance :   1.0000e-07
             **** THE GBW FILE WAS UPDATED (/beegfs/scratch/ispackman/PFAS_EPR_calcs/benchmark/JChemEd_CF3_radical/CH3_radical_109.5_degrees_IN-PROGRESS/CH3_radical_109.5_degrees.gbw) ****
             **** DENSITY /beegfs/scratch/ispackman/PFAS_EPR_calcs/benchmark/JChemEd_CF3_radical/CH3_radical_109.5_degrees_IN-PROGRESS/CH3_radical_109.5_degrees.scfp WAS UPDATED ****
             **** ENERGY FILE WAS UPDATED (/beegfs/scratch/ispackman/PFAS_EPR_calcs/benchmark/JChemEd_CF3_radical/CH3_radical_109.5_degrees_IN-PROGRESS/CH3_radical_109.5_degrees.en.tmp) ****
----------------------
UHF SPIN CONTAMINATION
----------------------

Warning: in a DFT calculation there is little theoretical justification to 
         calculate <S**2> as in Hartree-Fock theory. We will do it anyways
         but you should keep in mind that the values have only limited relevance

Expectation value of <S**2>     :     0.753055
Ideal value S*(S+1) for S=0.5   :     0.750000
Deviation                       :     0.003055

             **** THE GBW FILE WAS UPDATED (/beegfs/scratch/ispackman/PFAS_EPR_calcs/benchmark/JChemEd_CF3_radical/CH3_radical_109.5_degrees_IN-PROGRESS/CH3_radical_109.5_degrees.gbw) ****
             **** DENSITY /beegfs/scratch/ispackman/PFAS_EPR_calcs/benchmark/JChemEd_CF3_radical/CH3_radical_109.5_degrees_IN-PROGRESS/CH3_radical_109.5_degrees.scfp WAS UPDATED ****
Total SCF time: 0 days 0 hours 0 min 12 sec 

Maximum memory used throughout the entire SCF-calculation: 58.5 MB


-------------------------------------------------------------------------------
                          DFT DISPERSION CORRECTION                            
                                                                               
                              DFTD3 V3.1  Rev 1                                
                              USING zero damping                               
-------------------------------------------------------------------------------
-------------------------   ----------------
Dispersion correction           -0.000012397
-------------------------   ----------------


-------------------------   --------------------
FINAL SINGLE POINT ENERGY       -39.828426638733
-------------------------   --------------------



           ************************************************************
           *        Program running with 18 parallel MPI-processes    *
           *              working on a common directory               *
           ************************************************************
------------------------------------------------------------------------------
                         ORCA SCF GRADIENT CALCULATION
------------------------------------------------------------------------------

 ... reading COSX grid (gridx3)
Gradient of the Kohn-Sham DFT energy:
Kohn-Sham wavefunction type      ... UKS
Hartree-Fock exchange scaling    ...    0.196
Number of operators              ...    2
Number of atoms                  ...    4
Basis set dimensions             ...   64
Integral neglect threshold       ... 2.5e-11
Integral primitive cutoff        ... 2.5e-12
SHARK Integral package           ... ON

Nuc. rep. gradient       (SHARK) ... done (  0.0 sec)
HCore & Overlap gradient (SHARK) ... done (  0.0 sec)
RI-J gradient            (SHARK) ... done (  0.2 sec)
COSX-gradient                    ... done (  0.1 sec)
Exchange-correlation gradient    ... done
Dispersion correction            ... done

------------------
CARTESIAN GRADIENT
------------------

WARNING: THERE ARE 3 CONSTRAINED CARTESIAN COORDINATES
   1   C   :    0.000082017   -0.000000107    0.041729710
   2   H   :   -0.005095010   -0.000000002   -0.013910201
   3   H   :    0.002506279   -0.004442531   -0.013925221
   4   H   :    0.002506268    0.004442538   -0.013925240

Difference to translation invariance:
           :   -0.0000004466   -0.0000001031   -0.0000309516

Difference to rotation invariance:
           :    0.0000000351    0.0000266629   -0.0000000300

Norm of the cartesian gradient     ...    0.0489968102
RMS gradient                       ...    0.0141441608
MAX gradient                       ...    0.0417297104

-------
TIMINGS
-------

Total SCF gradient time            ...        0.782 sec

One electron gradient       ....       0.006 sec  (  0.8%)
RI-J Coulomb gradient       ....       0.174 sec  ( 22.3%)
COSX gradient               ....       0.128 sec  ( 16.4%)
XC gradient                 ....       0.060 sec  (  7.7%)

Maximum memory used throughout the entire SCFGRAD-calculation: 33.6 MB
------------------------------------------------------------------------------
                         ORCA GEOMETRY RELAXATION STEP
------------------------------------------------------------------------------

Reading the OPT-File                    .... done
Getting information on internals        .... done
Copying old internal coords+grads       .... done
Making the new internal coordinates     .... (new redundants).... done
Validating the new internal coordinates .... (new redundants).... done
Calculating the B-matrix                .... done
Calculating the G,G- and P matrices     .... done
Transforming gradient to internals      .... done
Projecting the internal gradient        .... done
Number of atoms                         ....   4
Number of internal coordinates          ....   7
Current Energy                          ....   -39.828426639 Eh
Current gradient norm                   ....     0.048996810 Eh/bohr
Maximum allowed component of the step   ....  0.300
Current trust radius                    ....  0.300
Updating the Hessian (BFGS)             .... done
Forming the augmented Hessian           .... done
Diagonalizing the augmented Hessian     .... done
Last element of RFO vector              ....  0.999999644
Lowest eigenvalues of augmented Hessian:
 -0.000000259  0.363485181  0.373574723  0.373575545 999.999999997
Length of the computed step             ....  0.000843518
The final length of the internal step   ....  0.000843518
Converting the step to cartesian space:
 Initial RMS(Int)=    0.0003188198
Transforming coordinates:
 Iter   0:  RMS(Cart)=    0.0002331639 RMS(Int)=    0.0003188198
 Iter   1:  RMS(Cart)=    0.0000000000 RMS(Int)=    0.0000000000
Imposing constraints:
 Iter   0:  RMS(Cart)=    0.0000000001 RMS(Int)=    0.0000000004
CONVERGED
done
Storing new coordinates                 .... done

                                .--------------------.
          ----------------------|Geometry convergence|-------------------------
          Item                value                   Tolerance       Converged
          ---------------------------------------------------------------------
          Energy change      -0.0001653109            0.0000050000      NO
          RMS gradient        0.0001158863            0.0001000000      NO
          MAX gradient        0.0001788873            0.0003000000      YES
          RMS step            0.0003188198            0.0020000000      YES
          MAX step            0.0004921499            0.0040000000      YES
          ........................................................
          Max(Bonds)      0.0003      Max(Angles)    0.00
          Max(Dihed)        0.00      Max(Improp)    0.00
          ---------------------------------------------------------------------

       The step convergence is overachieved with 
       reasonable convergence on the gradient
       Convergence will therefore be signaled now


                    ***********************HURRAY********************
                    ***        THE OPTIMIZATION HAS CONVERGED     ***
                    *************************************************


    ---------------------------------------------------------------------------
                         Redundant Internal Coordinates

                          --- Optimized Parameters ---  
                            (Angstroem and degrees)

        Definition                    OldVal   dE/dq     Step     FinalVal
    ----------------------------------------------------------------------------
     1. B(H   1,C   0)                1.0890 -0.000179  0.0003    1.0892   
     2. B(H   2,C   0)                1.0890 -0.000176  0.0003    1.0893   
     3. B(H   3,C   0)                1.0890 -0.000176  0.0003    1.0893   
     4. A(H   2,C   0,H   3)          109.50 -0.018835   -0.00    109.50 C 
     5. A(H   1,C   0,H   2)          109.50 -0.006999   -0.00    109.50 C 
     6. A(H   1,C   0,H   3)          109.50 -0.006999   -0.00    109.50 C 
     7. I(H   1,H   3,H   2,C   0)     54.66  0.023460    0.00     54.66   
    ----------------------------------------------------------------------------
                 *******************************************************
                 *** FINAL ENERGY EVALUATION AT THE STATIONARY POINT ***
                 ***               (AFTER    2 CYCLES)               ***
                 *******************************************************
---------------------------------
CARTESIAN COORDINATES (ANGSTROEM)
---------------------------------
  C      0.000005    0.000000    0.002310
  H      1.027133    0.000000   -0.360257
  H     -0.513569    0.889534   -0.360259
  H     -0.513569   -0.889534   -0.360259

----------------------------
CARTESIAN COORDINATES (A.U.)
----------------------------
  NO LB      ZA    FRAG     MASS         X           Y           Z
   0 C     6.0000    0    12.011    0.000009    0.000000    0.004365
   1 H     1.0000    0     1.008    1.941000    0.000000   -0.680787
   2 H     1.0000    0     1.008   -0.970505    1.680976   -0.680790
   3 H     1.0000    0     1.008   -0.970505   -1.680976   -0.680790

--------------------------------
INTERNAL COORDINATES (ANGSTROEM)
--------------------------------
 C      0   0   0     0.000000000000     0.00000000     0.00000000
 H      1   0   0     1.089241332986     0.00000000     0.00000000
 H      1   2   0     1.089259048454   109.49999997     0.00000000
 H      1   2   3     1.089259130736   109.49999997   120.07056362

---------------------------
INTERNAL COORDINATES (A.U.)
---------------------------
 C      0   0   0     0.000000000000     0.00000000     0.00000000
 H      1   0   0     2.058367813091     0.00000000     0.00000000
 H      1   2   0     2.058401290474   109.49999997     0.00000000
 H      1   2   3     2.058401445964   109.49999997   120.07056362

---------------------
BASIS SET INFORMATION
---------------------
There are 2 groups of distinct atoms

 Group   1 Type C   : 12s6p3d1f contracted to 6s3p3d1f pattern {621111/411/111/1}
 Group   2 Type H   : 5s2p contracted to 3s2p pattern {311/11}

Atom   0C    basis set group =>   1
Atom   1H    basis set group =>   2
Atom   2H    basis set group =>   2
Atom   3H    basis set group =>   2
---------------------------------
AUXILIARY/J BASIS SET INFORMATION
---------------------------------
There are 2 groups of distinct atoms

 Group   1 Type C   : 12s5p4d2f1g contracted to 6s4p3d1f1g pattern {711111/2111/211/2/1}
 Group   2 Type H   : 5s2p1d contracted to 3s1p1d pattern {311/2/1}

Atom   0C    basis set group =>   1
Atom   1H    basis set group =>   2
Atom   2H    basis set group =>   2
[...]

  NA   - Mulliken gross atomic population
  ZA   - Total nuclear charge
  QA   - Mulliken gross atomic charge
  VA   - Mayer's total valence
  BVA  - Mayer's bonded valence
  FA   - Mayer's free valence

  ATOM       NA         ZA         QA         VA         BVA        FA
  0 C      6.6985     6.0000    -0.6985     3.7827     2.9652     0.8175
  1 H      0.7674     1.0000     0.2326     1.0123     1.0110     0.0013
  2 H      0.7670     1.0000     0.2330     1.0118     1.0105     0.0013
  3 H      0.7670     1.0000     0.2330     1.0118     1.0105     0.0013

  Mayer bond orders larger than 0.100000
B(  0-C ,  1-H ) :   0.9888 B(  0-C ,  2-H ) :   0.9882 B(  0-C ,  3-H ) :   0.9882 


-------
TIMINGS
-------

Total SCF time: 0 days 0 hours 0 min 10 sec 

Total time                  ....      10.228 sec
Sum of individual times     ....       8.405 sec  ( 82.2%)

Fock matrix formation       ....       6.586 sec  ( 64.4%)
  Split-RI-J                ....       0.715 sec  ( 10.9% of F)
  Chain of spheres X        ....       0.942 sec  ( 14.3% of F)
  XC integration            ....       1.319 sec  ( 20.0% of F)
    Basis function eval.    ....       0.026 sec  (  2.0% of XC)
    Density eval.           ....       0.032 sec  (  2.4% of XC)
    XC-Functional eval.     ....       0.031 sec  (  2.4% of XC)
    XC-Potential eval.      ....       0.036 sec  (  2.7% of XC)
Diagonalization             ....       0.120 sec  (  1.2%)
Density matrix formation    ....       0.020 sec  (  0.2%)
Population analysis         ....       0.435 sec  (  4.3%)
Initial guess               ....       0.008 sec  (  0.1%)
Orbital Transformation      ....       0.000 sec  (  0.0%)
Orbital Orthonormalization  ....       0.002 sec  (  0.0%)
DIIS solution               ....       0.407 sec  (  4.0%)
Grid generation             ....       0.829 sec  (  8.1%)

Maximum memory used throughout the entire SCF-calculation: 58.5 MB


-------------------------------------------------------------------------------
                          DFT DISPERSION CORRECTION                            
                                                                               
                              DFTD3 V3.1  Rev 1                                
                              USING zero damping                               
-------------------------------------------------------------------------------
The omegaB97X-D3 functional is recognized. Fit by Chai et al.
Active option DFTDOPT                   ...         3   

molecular C6(AA) [au] = 106.982790 


            DFT-D V3
 parameters
 s6 scaling factor         :     1.0000 
 rs6 scaling factor        :     1.2810 
 s8 scaling factor         :     1.0000 
 rs8 scaling factor        :     1.0940 
 Damping factor alpha6     :    14.0000 
 Damping factor alpha8     :    16.0000 
 ad hoc parameters k1-k3   :    16.0000     1.3333    -4.0000 

 Edisp/kcal,au: -0.007794096492  -0.000012420682 
 E6   /kcal   :  -0.001214647 
 E8   /kcal   :  -0.006579450 
 % E8         :  84.415808973 

-------------------------   ----------------
Dispersion correction           -0.000012421
-------------------------   ----------------


-------------------------   --------------------
FINAL SINGLE POINT ENERGY       -39.828426773008
-------------------------   --------------------

                                *** OPTIMIZATION RUN DONE ***

                            ***************************************
                            *     ORCA property calculations      *
                            ***************************************

                                    ---------------------
                                    Active property flags
                                    ---------------------
   (+) Dipole Moment


------------------------------------------------------------------------------
                       ORCA ELECTRIC PROPERTIES CALCULATION
------------------------------------------------------------------------------

Dipole Moment Calculation                       ... on
Quadrupole Moment Calculation                   ... off
Polarizability Calculation                      ... off
GBWName                                         ... /beegfs/scratch/ispackman/PFAS_EPR_calcs/benchmark/JChemEd_CF3_radical/CH3_radical_109.5_degrees_IN-PROGRESS/CH3_radical_109.5_degrees.gbw
Electron density                                ... /beegfs/scratch/ispackman/PFAS_EPR_calcs/benchmark/JChemEd_CF3_radical/CH3_radical_109.5_degrees_IN-PROGRESS/CH3_radical_109.5_degrees.scfp
The origin for moment calculation is the CENTER OF MASS  = ( 0.000007,  0.000000 -0.133440)

-------------
DIPOLE MOMENT
-------------
                                X             Y             Z
Electronic contribution:      0.00016       0.00000       0.56740
Nuclear contribution   :     -0.00001      -0.00000      -0.81521
                        -----------------------------------------
Total Dipole Moment    :      0.00014      -0.00000      -0.24781
                        -----------------------------------------
Magnitude (a.u.)       :      0.24781
Magnitude (Debye)      :      0.62989



--------------------
Rotational spectrum 
--------------------
 
Rotational constants in cm-1:     8.813366     8.813207     5.283914 
Rotational constants in MHz : 264218.077137 264213.287776 158407.764169 

 Dipole components along the rotational axes: 
x,y,z [a.u.] :    -0.000000     0.000142    -0.247812 
x,y,z [Debye]:    -0.000001     0.000360    -0.629888 

 


           ************************************************************
           *        Program running with 18 parallel MPI-processes    *
           *              working on a common directory               *
           ************************************************************

-------------------------------------------------------------------------------
                               ORCA SCF HESSIAN
-------------------------------------------------------------------------------

                   --------- SHARK INITIALIZATION DONE ---------

Hessian of the Kohn-Sham DFT energy:
Kohn-Sham wavefunction type                      ... UKS
Hartree-Fock exchange scaling                    ...    0.196
Number of operators                              ...    2
Number of atoms                                  ...    4
Basis set dimensions                             ...   64
Integral neglect threshold                       ... 2.5e-11
Integral primitive cutoff                        ... 2.5e-12

Setting up DFT Hessian calculations              ... 

HESS GRID
---------

General Integration Accuracy     IntAcc      ... 4.629
Radial Grid Type                 RadialGrid  ... OptM3 with GC (2021)
Angular Grid (max. ang.)         AngularGrid ... 5 (Lebedev-434)
Angular grid pruning method      GridPruning ... 4 (adaptive)
Weight generation scheme         WeightScheme... Becke
Basis function cutoff            BFCut       ... 1.0000e-11
Integration weight cutoff        WCut        ... 1.0000e-14
Angular grids for H and He will be reduced by one unit
Partially contracted basis set               ... off
Rotationally invariant grid construction     ... off

Total number of grid points                  ...    27253
Total number of batches                      ...      427
Average number of points per batch           ...       63
Average number of grid points per atom       ...     6813

Building densities                               ... done   (      0.0 sec)
Calculating rho(r) on the grid                   ... done   (      0.1 sec)
Building xc-kernel on the grid                   ... done   (      0.1 sec)
                                                     done   (      0.5 sec)

Nuclear repulsion Hessian  (SHARK)               ... done   (      0.0 sec)

----------------------------------------------
Forming right-hand sides of CP-SCF equations     ...
----------------------------------------------
One electron integral derivatives  (SHARK)       ... done   (      0.0 sec)
Transforming the overlap derivative matrices     ... done   (      0.0 sec)
Making the Q(x) pseudodensities                  ... done   (      0.0 sec)
Adding the E*S(x)*S(y) terms to the Hessian      ... done   (      0.0 sec)
Calculating energy weighted overlap derivatives  ... done   (      0.1 sec)
Two electron integral derivatives (SHARK-RI)     ... done   (      0.7 sec)
Exchange-correlation integral derivatives        ... done   (      0.4 sec)
tr(F(y)Q(x)) contribution to the Hessian         ... done   (      0.0 sec)
Response fock operator R(S(x)) (SHARK-RIJCOSX)   ... done   (      0.6 sec)
XC Response fock operator R(S(x))                ... done   (      0.2 sec)
tr(F(y)S(x)) contribution to the Hessian         ... done   (      0.0 sec)
Transforming and finalizing RHSs                 ... done   (      0.0 sec)

----------------------------------------------
Solving the CP-SCF equations (RIJCOSX)           ...
----------------------------------------------
     CP-SCF ITERATION   0:   9.4840e-02 (   0.5 sec   0/ 12 done)
     CP-SCF ITERATION   1:   2.5984e-02 (   0.4 sec   0/ 12 done)
     CP-SCF ITERATION   2:   7.2509e-03 (   0.5 sec   0/ 12 done)
     CP-SCF ITERATION   3:   2.3139e-03 (   0.5 sec   0/ 12 done)
     CP-SCF ITERATION   4:   4.5059e-04 (   0.4 sec   1/ 12 done)
     CP-SCF ITERATION   5:   9.0755e-05 (   0.4 sec  12/ 12 done)
                    *** THE CP-SCF HAS CONVERGED ***

                                                 ... done   (      3.1 sec)
Forming perturbed density Hessian contributions  ... done   (      0.0 sec)
2nd integral derivative contribs (SHARK-RI)      ... done   (      0.9 sec)
Exchange-correlation Hessian                     ... done   (      0.3 sec)
Dispersion correction in the Hessian             ... done   (      0.1 sec)
Dipole derivatives                               ... (center of mass:  0.000007,  0.000000 -0.133440)done   (      0.2 sec)

Total SCF Hessian time: 0 days 0 hours 0 min 7 sec 

Writing the Hessian file to the disk             ... done


Maximum memory used throughout the entire SCFHESS-calculation: 109.5 MB

-----------------------
VIBRATIONAL FREQUENCIES
-----------------------

Scaling factor for frequencies =  1.000000000  (already applied!)

   0:         0.00 cm**-1
   1:         0.00 cm**-1
   2:         0.00 cm**-1
   3:         0.00 cm**-1
   4:         0.00 cm**-1
   5:         0.00 cm**-1
   6:      1138.23 cm**-1
   7:      1417.77 cm**-1
   8:      1418.26 cm**-1
   9:      3079.16 cm**-1
  10:      3190.97 cm**-1
  11:      3191.05 cm**-1


------------
NORMAL MODES
------------

These modes are the Cartesian displacements weighted by the diagonal matrix
M(i,i)=1/sqrt(m[i]) where m[i] is the mass of the displaced atom
Thus, these vectors are normalized but *not* orthogonal

                  0          1          2          3          4          5    
      0       0.000000   0.000000   0.000000   0.000000   0.000000   0.000000
      1       0.000000   0.000000   0.000000   0.000000   0.000000   0.000000
      2       0.000000   0.000000   0.000000   0.000000   0.000000   0.000000
      3       0.000000   0.000000   0.000000   0.000000   0.000000   0.000000
      4       0.000000   0.000000   0.000000   0.000000   0.000000   0.000000
      5       0.000000   0.000000   0.000000   0.000000   0.000000   0.000000
      6       0.000000   0.000000   0.000000   0.000000   0.000000   0.000000
      7       0.000000   0.000000   0.000000   0.000000   0.000000   0.000000
      8       0.000000   0.000000   0.000000   0.000000   0.000000   0.000000
      9       0.000000   0.000000   0.000000   0.000000   0.000000   0.000000
     10       0.000000   0.000000   0.000000   0.000000   0.000000   0.000000
     11       0.000000   0.000000   0.000000   0.000000   0.000000   0.000000
                  6          7          8          9         10         11    
      0       0.000894   0.000004  -0.080914  -0.000224  -0.000366  -0.093405
      1       0.000000   0.080921   0.000004  -0.000000  -0.093403   0.000366
      2      -0.135891   0.000000  -0.001290  -0.039176   0.000000   0.000057
      3       0.190397   0.000006  -0.126234  -0.553844   0.003019   0.770471
      4      -0.000001  -0.770973  -0.000037   0.000000  -0.027124   0.000106
      5       0.542260   0.000010  -0.221766   0.154976  -0.001027  -0.262143
      6      -0.100526  -0.389351   0.545172   0.278258  -0.344104   0.172606
      7       0.159820  -0.096648   0.390989  -0.481780   0.568698  -0.345800
      8       0.538489   0.196501   0.118579   0.155917  -0.226307   0.131617
      9      -0.100525   0.389299   0.545210   0.278261   0.345443   0.169906
     10      -0.159820  -0.096610  -0.390998   0.481784   0.571385   0.341336
     11       0.538489  -0.196513   0.118560   0.155919   0.227329   0.129841


-----------
IR SPECTRUM
-----------

 Mode   freq       eps      Int      T**2         TX        TY        TZ
       cm**-1   L/(mol*cm) km/mol    a.u.
----------------------------------------------------------------------------
  6:   1138.23   0.003958   20.00  0.001085  (-0.000068 -0.000000  0.032943)
  7:   1417.77   0.000639    3.23  0.000141  (-0.000001 -0.011857 -0.000000)
  8:   1418.26   0.000629    3.18  0.000139  ( 0.011761 -0.000001  0.000438)
  9:   3079.16   0.000016    0.08  0.000002  (-0.000037 -0.000000 -0.001267)
 10:   3190.97   0.004149   20.97  0.000406  (-0.000078 -0.020144  0.000000)
 11:   3191.05   0.004078   20.61  0.000399  (-0.019970  0.000079  0.000028)

* The epsilon (eps) is given for a Dirac delta lineshape.
** The dipole moment derivative (T) already includes vibrational overlap.

The first frequency considered to be a vibration is 6
The total number of vibrations considered is 6


--------------------------
THERMOCHEMISTRY AT 298.15K
--------------------------

Temperature         ... 298.15 K
Pressure            ... 1.00 atm
Total Mass          ... 15.03 AMU

Throughout the following assumptions are being made:
  (1) The electronic state is orbitally nondegenerate
      but the spin degeneracy is treated
  (2) There are no thermally accessible electronically excited states
  (3) Hindered rotations indicated by low frequency modes are not
      treated as such but are treated as vibrations and this may
      cause some error
  (4) All equations used are the standard statistical mechanics
      equations for an ideal gas
  (5) All vibrations are strictly harmonic

freq.    1138.23  E(vib)   ...       0.01 
freq.    1417.77  E(vib)   ...       0.00 
freq.    1418.26  E(vib)   ...       0.00 
freq.    3079.16  E(vib)   ...       0.00 
freq.    3190.97  E(vib)   ...       0.00 
freq.    3191.05  E(vib)   ...       0.00 

------------
INNER ENERGY
------------

The inner energy is: U= E(el) + E(ZPE) + E(vib) + E(rot) + E(trans)
    E(el)   - is the total energy from the electronic structure calculation
              = E(kin-el) + E(nuc-el) + E(el-el) + E(nuc-nuc)
    E(ZPE)  - the the zero temperature vibrational energy from the frequency calculation
    E(vib)  - the the finite temperature correction to E(ZPE) due to population
              of excited vibrational states
    E(rot)  - is the rotational thermal energy
    E(trans)- is the translational thermal energy

Summary of contributions to the inner energy U:
Electronic energy                ...    -39.82842677 Eh
Zero point energy                ...      0.03060819 Eh      19.21 kcal/mol
Thermal vibrational correction   ...      0.00003526 Eh       0.02 kcal/mol
Thermal rotational correction    ...      0.00141627 Eh       0.89 kcal/mol
Thermal translational correction ...      0.00141627 Eh       0.89 kcal/mol
-----------------------------------------------------------------------
Total thermal energy                    -39.79495078 Eh


Summary of corrections to the electronic energy:
(perhaps to be used in another calculation)
Total thermal correction                  0.00286780 Eh       1.80 kcal/mol
Non-thermal (ZPE) correction              0.03060819 Eh      19.21 kcal/mol
-----------------------------------------------------------------------
Total correction                          0.03347599 Eh      21.01 kcal/mol


--------
ENTHALPY
--------

The enthalpy is H = U + kB*T
                kB is Boltzmann's constant
Total free energy                 ...    -39.79495078 Eh 
Thermal Enthalpy correction       ...      0.00094421 Eh       0.59 kcal/mol
-----------------------------------------------------------------------
Total Enthalpy                    ...    -39.79400657 Eh


Note: Rotational entropy computed according to Herzberg 
Infrared and Raman Spectra, Chapter V,1, Van Nostrand Reinhold, 1945 
Point Group:  C3v, Symmetry Number:   3  
Rotational constants in cm-1:     8.813366     8.813207     5.283914 

Vibrational entropy computed according to the QRRHO of S. Grimme
Chem.Eur.J. 2012 18 9955


-------
ENTROPY
-------

The entropy contributions are T*S = T*(S(el)+S(vib)+S(rot)+S(trans))
     S(el)   - electronic entropy
     S(vib)  - vibrational entropy
     S(rot)  - rotational entropy
     S(trans)- translational entropy
The entropies will be listed as multiplied by the temperature to get
units of energy

Electronic entropy                ...      0.00065446 Eh      0.41 kcal/mol
Vibrational entropy               ...      0.00004118 Eh      0.03 kcal/mol
Rotational entropy                ...      0.00563286 Eh      3.53 kcal/mol
Translational entropy             ...      0.01618771 Eh     10.16 kcal/mol
-----------------------------------------------------------------------
Final entropy term                ...      0.02251621 Eh     14.13 kcal/mol

In case the symmetry of your molecule has not been determined correctly
or in case you have a reason to use a different symmetry number we print 
out the resulting rotational entropy values for sn=1,12 :
 --------------------------------------------------------
|  sn= 1 | S(rot)=       0.00667015 Eh      4.19 kcal/mol|
|  sn= 2 | S(rot)=       0.00601570 Eh      3.77 kcal/mol|
|  sn= 3 | S(rot)=       0.00563286 Eh      3.53 kcal/mol|
|  sn= 4 | S(rot)=       0.00536124 Eh      3.36 kcal/mol|
|  sn= 5 | S(rot)=       0.00515055 Eh      3.23 kcal/mol|
|  sn= 6 | S(rot)=       0.00497841 Eh      3.12 kcal/mol|
|  sn= 7 | S(rot)=       0.00483286 Eh      3.03 kcal/mol|
|  sn= 8 | S(rot)=       0.00470678 Eh      2.95 kcal/mol|
|  sn= 9 | S(rot)=       0.00459558 Eh      2.88 kcal/mol|
|  sn=10 | S(rot)=       0.00449610 Eh      2.82 kcal/mol|
|  sn=11 | S(rot)=       0.00440611 Eh      2.76 kcal/mol|
|  sn=12 | S(rot)=       0.00432395 Eh      2.71 kcal/mol|
 --------------------------------------------------------


-------------------
GIBBS FREE ENERGY
-------------------

The Gibbs free energy is G = H - T*S

Total enthalpy                    ...    -39.79400657 Eh 
Total entropy correction          ...     -0.02251621 Eh    -14.13 kcal/mol
-----------------------------------------------------------------------
Final Gibbs free energy         ...    -39.81652278 Eh

For completeness - the Gibbs free energy minus the electronic energy
G-E(el)                           ...      0.01190399 Eh      7.47 kcal/mol


Timings for individual modules:

Sum of individual times         ...       75.349 sec (=   1.256 min)
GTO integral calculation        ...        9.198 sec (=   0.153 min)  12.2 %
SCF iterations                  ...       48.917 sec (=   0.815 min)  64.9 %
SCF Gradient evaluation         ...        6.697 sec (=   0.112 min)   8.9 %
Geometry relaxation             ...        0.168 sec (=   0.003 min)   0.2 %
Analytical frequency calculation...       10.369 sec (=   0.173 min)  13.8 %
                             ****ORCA TERMINATED NORMALLY****
TOTAL RUN TIME: 0 days 0 hours 1 minutes 25 seconds 803 msec

slurmID:    32260110
totalRuntime[s]:    85.840821998
