
                                 *****************
                                 * O   R   C   A *
                                 *****************

                                            #,                                       
                                            ###                                      
                                            ####                                     
                                            #####                                    
                                            ######                                   
                                           ########,                                 
                                     ,,################,,,,,                         
                               ,,#################################,,                 
                          ,,##########################################,,             
                       ,#########################################, ''#####,          
                    ,#############################################,,   '####,        
                  ,##################################################,,,,####,       
                ,###########''''           ''''###############################       
              ,#####''   ,,,,##########,,,,          '''####'''          '####       
            ,##' ,,,,###########################,,,                        '##       
           ' ,,###''''                  '''############,,,                           
         ,,##''                                '''############,,,,        ,,,,,,###''
      ,#''                                            '''#######################'''  
     '                                                          ''''####''''         
             ,#######,   #######,   ,#######,      ##                                
            ,#'     '#,  ##    ##  ,#'     '#,    #''#        ######   ,####,        
            ##       ##  ##   ,#'  ##            #'  '#       #        #'  '#        
            ##       ##  #######   ##           ,######,      #####,   #    #        
            '#,     ,#'  ##    ##  '#,     ,#' ,#      #,         ##   #,  ,#        
             '#######'   ##     ##  '#######'  #'      '#     #####' # '####'        



                  #######################################################
                  #                        -***-                        #
                  #          Department of theory and spectroscopy      #
                  #    Directorship and core code : Frank Neese         #
                  #        Max Planck Institute fuer Kohlenforschung    #
                  #                Kaiser Wilhelm Platz 1               #
                  #                 D-45470 Muelheim/Ruhr               #
                  #                      Germany                        #
                  #                                                     #
                  #                  All rights reserved                #
                  #                        -***-                        #
                  #######################################################


                         Program Version 5.0.4 -  RELEASE  -


 With contributions from (in alphabetic order):
   Daniel Aravena         : Magnetic Suceptibility
   Michael Atanasov       : Ab Initio Ligand Field Theory (pilot matlab implementation)
   Alexander A. Auer      : GIAO ZORA, VPT2 properties, NMR spectrum
   Ute Becker             : Parallelization
   Giovanni Bistoni       : ED, misc. LED, open-shell LED, HFLD
   Martin Brehm           : Molecular dynamics
   Dmytro Bykov           : SCF Hessian
   Vijay G. Chilkuri      : MRCI spin determinant printing, contributions to CSF-ICE
   Dipayan Datta          : RHF DLPNO-CCSD density
   Achintya Kumar Dutta   : EOM-CC, STEOM-CC
   Dmitry Ganyushin       : Spin-Orbit,Spin-Spin,Magnetic field MRCI
   Miquel Garcia          : C-PCM and meta-GGA Hessian, CC/C-PCM, Gaussian charge scheme
   Yang Guo               : DLPNO-NEVPT2, F12-NEVPT2, CIM, IAO-localization
   Andreas Hansen         : Spin unrestricted coupled pair/coupled cluster methods
   Benjamin Helmich-Paris : MC-RPA, TRAH-SCF, COSX integrals
   Lee Huntington         : MR-EOM, pCC
   Robert Izsak           : Overlap fitted RIJCOSX, COSX-SCS-MP3, EOM
   Marcus Kettner         : VPT2
   Christian Kollmar      : KDIIS, OOCD, Brueckner-CCSD(T), CCSD density, CASPT2, CASPT2-K
   Simone Kossmann        : Meta GGA functionals, TD-DFT gradient, OOMP2, MP2 Hessian
   Martin Krupicka        : Initial AUTO-CI
   Lucas Lang             : DCDCAS
   Marvin Lechner         : AUTO-CI (C++ implementation), FIC-MRCC
   Dagmar Lenk            : GEPOL surface, SMD
   Dimitrios Liakos       : Extrapolation schemes; Compound Job, initial MDCI parallelization
   Dimitrios Manganas     : Further ROCIS development; embedding schemes
   Dimitrios Pantazis     : SARC Basis sets
   Anastasios Papadopoulos: AUTO-CI, single reference methods and gradients
   Taras Petrenko         : DFT Hessian,TD-DFT gradient, ASA, ECA, R-Raman, ABS, FL, XAS/XES, NRVS
   Peter Pinski           : DLPNO-MP2, DLPNO-MP2 Gradient
   Christoph Reimann      : Effective Core Potentials
   Marius Retegan         : Local ZFS, SOC
   Christoph Riplinger    : Optimizer, TS searches, QM/MM, DLPNO-CCSD(T), (RO)-DLPNO pert. Triples
   Tobias Risthaus        : Range-separated hybrids, TD-DFT gradient, RPA, STAB
   Michael Roemelt        : Original ROCIS implementation
   Masaaki Saitow         : Open-shell DLPNO-CCSD energy and density
   Barbara Sandhoefer     : DKH picture change effects
   Avijit Sen             : IP-ROCIS
   Kantharuban Sivalingam : CASSCF convergence, NEVPT2, FIC-MRCI
   Bernardo de Souza      : ESD, SOC TD-DFT
   Georgi Stoychev        : AutoAux, RI-MP2 NMR, DLPNO-MP2 response
   Willem Van den Heuvel  : Paramagnetic NMR
   Boris Wezisla          : Elementary symmetry handling
   Frank Wennmohs         : Technical directorship


 We gratefully acknowledge several colleagues who have allowed us to
 interface, adapt or use parts of their codes:
   Stefan Grimme, W. Hujo, H. Kruse, P. Pracht,  : VdW corrections, initial TS optimization,
                  C. Bannwarth, S. Ehlert          DFT functionals, gCP, sTDA/sTD-DF
   Ed Valeev, F. Pavosevic, A. Kumar             : LibInt (2-el integral package), F12 methods
   Garnet Chan, S. Sharma, J. Yang, R. Olivares  : DMRG
   Ulf Ekstrom                                   : XCFun DFT Library
   Mihaly Kallay                                 : mrcc  (arbitrary order and MRCC methods)
   Jiri Pittner, Ondrej Demel                    : Mk-CCSD
   Frank Weinhold                                : gennbo (NPA and NBO analysis)
   Christopher J. Cramer and Donald G. Truhlar   : smd solvation model
   Lars Goerigk                                  : TD-DFT with DH, B97 family of functionals
   V. Asgeirsson, H. Jonsson                     : NEB implementation
   FAccTs GmbH                                   : IRC, NEB, NEB-TS, DLPNO-Multilevel, CI-OPT
                                                   MM, QMMM, 2- and 3-layer-ONIOM, Crystal-QMMM,
                                                   LR-CPCM, SF, NACMEs, symmetry and pop. for TD-DFT,
                                                   nearIR, NL-DFT gradient (VV10), updates on ESD,
                                                   ML-optimized integration grids
   S Lehtola, MJT Oliveira, MAL Marques          : LibXC Library
   Liviu Ungur et al                             : ANISO software


 Your calculation uses the libint2 library for the computation of 2-el integrals
 For citations please refer to: http://libint.valeyev.net

 Your ORCA version has been built with support for libXC version: 5.1.0
 For citations please refer to: https://tddft.org/programs/libxc/

 This ORCA versions uses:
   CBLAS   interface :  Fast vector & matrix operations
   LAPACKE interface :  Fast linear algebra routines
   SCALAPACK package :  Parallel linear algebra routines
   Shared memory     :  Shared parallel matrices
   BLAS/LAPACK       :  OpenBLAS 0.3.15  USE64BITINT DYNAMIC_ARCH NO_AFFINITY SkylakeX SINGLE_THREADED
        Core in use  :  SkylakeX
   Copyright (c) 2011-2014, The OpenBLAS Project


Your calculation utilizes the atom-pairwise dispersion correction
with the zero-damping scheme (D30)
Cite in your paper:
S.Grimme, J.Antony, S.Ehrlich and H.Krieg, J.Chem.Phys., 132, (2010), 154104 
   

XCFun DFT library Copyright 2009-2010 Ulf Ekstrom and contributors.
See http://admol.org/xcfun for more information.
This is free software; see the source code for copying conditions.
There is ABSOLUTELY NO WARRANTY; not even for MERCHANTABILITY or FITNESS FOR A PARTICULAR PURPOSE.
For details see the documentation.
Scientific users of this library should cite U. Ekstrom, L. Visscher, R. Bast, A. J. Thorvaldsen and K. Ruud;
J.Chem.Theor.Comp. 2010, DOI: 10.1021/ct100117s
XCFun Version 0.99 

================================================================================

----- Orbital basis set information -----
Your calculation utilizes the basis: def2-TZVPD
   F. Weigend and R. Ahlrichs, Phys. Chem. Chem. Phys. 7, 3297 (2005).
   D. Rappoport and F. Furche, J. Chem. Phys. 133 134105 (2010).

----- AuxJ basis set information -----
Your calculation utilizes the auxiliary basis: def2/J
   F. Weigend, Phys. Chem. Chem. Phys. 8, 1057 (2006).

================================================================================
                                        WARNINGS
                       Please study these warnings very carefully!
================================================================================


WARNING: Geometry Optimization
  ===> : Switching off AutoStart
         For restart on a previous wavefunction, please use MOREAD

INFO   : the flag for use of the SHARK integral package has been found!

================================================================================
                                       INPUT FILE
================================================================================
NAME = /beegfs/scratch/ispackman/PFAS_EPR_calcs/benchmark/JChemEd_CF3_radical/CH3_radical_111.0_degrees_IN-PROGRESS/CH3_radical_111.0_degrees.inp
|  1> ! UKS TightSCF wB97x-D3 def2-TZVPD xyzfile opt freq
|  2> 
|  3> # CH3 radical 111.0 degrees fixed
|  4> 
|  5> %maxcore 1000
|  6> %pal
|  7> nprocs 18
|  8> end
|  9> 
| 10> %geom Constraints
| 11>         { A * 0 * C }
| 12>     end
| 13> end
| 14> * xyz 0 2
| 15> C 0.00 0.00 0.00
| 16> H 1.0277484700 0.0000000000 -0.3318630477
| 17> H -0.5138742350 0.8900562837 -0.3318630477
| 18> H -0.5138742350 -0.8900562837 -0.3318630477
| 19> **                         ****END OF INPUT****
================================================================================

                       *****************************
                       * Geometry Optimization Run *
                       *****************************

Geometry optimization settings:
Update method            Update   .... BFGS
Choice of coordinates    CoordSys .... Z-matrix Internals
Initial Hessian          InHess   .... Almoef's Model

Convergence Tolerances:
Energy Change            TolE     ....  5.0000e-06 Eh
Max. Gradient            TolMAXG  ....  3.0000e-04 Eh/bohr
RMS Gradient             TolRMSG  ....  1.0000e-04 Eh/bohr
Max. Displacement        TolMAXD  ....  4.0000e-03 bohr
RMS Displacement         TolRMSD  ....  2.0000e-03 bohr
Strict Convergence                ....  False
------------------------------------------------------------------------------
                        ORCA OPTIMIZATION COORDINATE SETUP
------------------------------------------------------------------------------

The optimization will be done in new redundant internal coordinates
Making redundant internal coordinates   ...  (new redundants) done
Evaluating the initial hessian          ...  (Almloef) done
Evaluating the coordinates              ...  done
Calculating the B-matrix                .... done
Calculating the G-matrix                .... done
Diagonalizing the G-matrix              .... done
Imposing constraints:
 Iter   0:  RMS(Cart)=    0.0000000000 RMS(Int)=    0.0000000000
CONVERGED
Will constrain atom 0 coordinate 1 
Will constrain atom 0 coordinate 2 
Will constrain atom 1 coordinate 2 
The first mode is                       ....    1
The number of degrees of freedom        ....    6
Storing new coordinates                 .... done

    -----------------------------------------------------------------
                    Redundant Internal Coordinates


    -----------------------------------------------------------------
         Definition                    Initial Value    Approx d2E/dq
    -----------------------------------------------------------------
      1. B(H   1,C   0)                  1.0800         0.373575   
      2. B(H   2,C   0)                  1.0800         0.373575   
      3. B(H   3,C   0)                  1.0800         0.373575   
      4. A(H   2,C   0,H   3)          111.0000         0.294224 C 
      5. A(H   1,C   0,H   2)          111.0000         0.294224 C 
      6. A(H   1,C   0,H   3)          111.0000         0.294224 C 
      7. I(H   1,H   3,H   2,C   0)     50.7500         0.005788   
    -----------------------------------------------------------------

Number of atoms                         .... 4
Number of degrees of freedom            .... 7

         *************************************************************
         *                GEOMETRY OPTIMIZATION CYCLE   1            *
         *************************************************************
---------------------------------
CARTESIAN COORDINATES (ANGSTROEM)
---------------------------------
  C      0.000000    0.000000    0.000000
  H      1.027748    0.000000   -0.331863
  H     -0.513874    0.890056   -0.331863
  H     -0.513874   -0.890056   -0.331863

----------------------------
CARTESIAN COORDINATES (A.U.)
----------------------------
  NO LB      ZA    FRAG     MASS         X           Y           Z
   0 C     6.0000    0    12.011    0.000000    0.000000    0.000000
   1 H     1.0000    0     1.008    1.942163    0.000000   -0.627130
   2 H     1.0000    0     1.008   -0.971082    1.681963   -0.627130
   3 H     1.0000    0     1.008   -0.971082   -1.681963   -0.627130

--------------------------------
INTERNAL COORDINATES (ANGSTROEM)
--------------------------------
 C      0   0   0     0.000000000000     0.00000000     0.00000000
 H      1   0   0     1.080000000007     0.00000000     0.00000000
 H      1   2   0     1.079999999990   111.00000000     0.00000000
 H      1   2   3     1.079999999990   111.00000000   123.95389690

---------------------------
INTERNAL COORDINATES (A.U.)
---------------------------
 C      0   0   0     0.000000000000     0.00000000     0.00000000
 H      1   0   0     2.040904224649     0.00000000     0.00000000
 H      1   2   0     2.040904224617   111.00000000     0.00000000
 H      1   2   3     2.040904224617   111.00000000   123.95389690

---------------------
BASIS SET INFORMATION
---------------------
There are 2 groups of distinct atoms

 Group   1 Type C   : 12s6p3d1f contracted to 6s3p3d1f pattern {621111/411/111/1}
 Group   2 Type H   : 5s2p contracted to 3s2p pattern {311/11}

Atom   0C    basis set group =>   1
Atom   1H    basis set group =>   2
Atom   2H    basis set group =>   2
Atom   3H    basis set group =>   2
---------------------------------
AUXILIARY/J BASIS SET INFORMATION
---------------------------------
There are 2 groups of distinct atoms

 Group   1 Type C   : 12s5p4d2f1g contracted to 6s4p3d1f1g pattern {711111/2111/211/2/1}
 Group   2 Type H   : 5s2p1d contracted to 3s1p1d pattern {311/2/1}

Atom   0C    basis set group =>   1
Atom   1H    basis set group =>   2
Atom   2H    basis set group =>   2
Atom   3H    basis set group =>   2


           ************************************************************
           *        Program running with 18 parallel MPI-processes    *
           *              working on a common directory               *
           ************************************************************
------------------------------------------------------------------------------
                           ORCA GTO INTEGRAL CALCULATION
                           -- RI-GTO INTEGRALS CHOSEN --
------------------------------------------------------------------------------
------------------------------------------------------------------------------
                   ___                                                        
                  /   \      - P O W E R E D   B Y -                         
                 /     \                                                     
                 |  |  |   _    _      __       _____    __    __             
                 |  |  |  | |  | |    /  \     |  _  \  |  |  /  |          
                  \  \/   | |  | |   /    \    | | | |  |  | /  /          
                 / \  \   | |__| |  /  /\  \   | |_| |  |  |/  /          
                |  |  |   |  __  | /  /__\  \  |    /   |      \           
                |  |  |   | |  | | |   __   |  |    \   |  |\   \          
                \     /   | |  | | |  |  |  |  | |\  \  |  | \   \       
                 \___/    |_|  |_| |__|  |__|  |_| \__\ |__|  \__/        
                                                                              
                      - O R C A' S   B I G   F R I E N D -                    
                                      &                                       
                       - I N T E G R A L  F E E D E R -                       
                                                                              
 v1 FN, 2020, v2 2021                                                         
------------------------------------------------------------------------------


Reading SHARK input file /beegfs/scratch/ispackman/PFAS_EPR_calcs/benchmark/JChemEd_CF3_radical/CH3_radical_111.0_degrees_IN-PROGRESS/CH3_radical_111.0_degrees.SHARKINP.tmp ... ok
----------------------
SHARK INTEGRAL PACKAGE
----------------------

Number of atoms                             ...      4
Number of basis functions                   ...     64
Number of shells                            ...     28
Maximum angular momentum                    ...      3
Integral batch strategy                     ... SHARK/LIBINT Hybrid
RI-J (if used) integral strategy            ... SPLIT-RIJ (Revised 2003 algorithm where possible)
Printlevel                                  ...      1
Contraction scheme used                     ... SEGMENTED contraction
Coulomb Range Separation                    ... NOT USED
Exchange Range Separation                   ... Long Range
   Mu parameter                             ...  0.250000
   Scaling (regular/separated)              ...  0.195728  0.804272
Finite Nucleus Model                        ... NOT USED
Auxiliary Coulomb fitting basis             ... AVAILABLE
   # of basis functions in Aux-J            ...     82
   # of shells in Aux-J                     ...     30
   Maximum angular momentum in Aux-J        ...      4
Auxiliary J/K fitting basis                 ... NOT available
Auxiliary Correlation fitting basis         ... NOT available
Auxiliary 'external' fitting basis          ... NOT available
Integral threshold                          ...     2.500000e-11
Primitive cut-off                           ...     2.500000e-12
Primitive pair pre-selection threshold      ...     2.500000e-12

Calculating pre-screening integrals         ... done (  0.0 sec) Dimension = 28
Organizing shell pair data                  ... done (  0.0 sec)
Shell pair information
Total number of shell pairs                 ...       406
Shell pairs after pre-screening             ...       406
Total number of primitive shell pairs       ...       977
Primitive shell pairs kept                  ...       944
          la=0 lb=0:    120 shell pairs
          la=1 lb=0:    135 shell pairs
          la=1 lb=1:     45 shell pairs
          la=2 lb=0:     45 shell pairs
          la=2 lb=1:     27 shell pairs
          la=2 lb=2:      6 shell pairs
          la=3 lb=0:     15 shell pairs
          la=3 lb=1:      9 shell pairs
          la=3 lb=2:      3 shell pairs
          la=3 lb=3:      1 shell pairs

Calculating one electron integrals          ... done (  0.0 sec)
Calculating RI/J V-Matrix + Cholesky decomp.... done (  0.0 sec)
Calculating Nuclear repulsion               ... done (  0.0 sec) ENN=      9.711435439237 Eh

SHARK setup successfully completed in   0.3 seconds

Maximum memory used throughout the entire GTOINT-calculation: 14.0 MB


           ************************************************************
           *        Program running with 18 parallel MPI-processes    *
           *              working on a common directory               *
           ************************************************************
-------------------------------------------------------------------------------
                                 ORCA SCF
-------------------------------------------------------------------------------

------------
SCF SETTINGS
------------
Hamiltonian:
 Density Functional     Method          .... DFT(GTOs)
 Exchange Functional    Exchange        .... WB97X-D3
 Correlation Functional Correlation     .... WB97X-D3
 Gradients option       PostSCFGGA      .... off
 Hybrid DFT is turned on
   Fraction HF Exchange ScalHFX         ....  0.195728
   Scaling of DF-GGA-X  ScalDFX         ....  0.000000
   Scaling of DF-GGA-C  ScalDFC         ....  1.000000
   Scaling of DF-LDA-C  ScalLDAC        ....  1.000000
   Perturbative correction              ....  0.000000
   Density functional embedding theory  .... OFF
 Long-range corrected/Screened/Range-Separated Hybrid DFT is turned on
   Amount of maximum screened exact exchange              ....  0.804272
   Range separation parameter mu (erf(mu*r12)/r12)        ....  0.250000
 RI-approximation to the Coulomb term is turned on
   Number of AuxJ basis functions       .... 82
   RIJ-COSX (HFX calculated with COS-X)).... on


General Settings:
 Integral files         IntName         .... /beegfs/scratch/ispackman/PFAS_EPR_calcs/benchmark/JChemEd_CF3_radical/CH3_radical_111.0_degrees_IN-PROGRESS/CH3_radical_111.0_degrees
 Hartree-Fock type      HFTyp           .... UHF
 Total Charge           Charge          ....    0
 Multiplicity           Mult            ....    2
 Number of Electrons    NEL             ....    9
 Basis Dimension        Dim             ....   64
 Nuclear Repulsion      ENuc            ....      9.7114354392 Eh

Convergence Acceleration:
 DIIS                   CNVDIIS         .... on
   Start iteration      DIISMaxIt       ....    12
   Startup error        DIISStart       ....  0.200000
   # of expansion vecs  DIISMaxEq       ....     5
   Bias factor          DIISBfac        ....   1.050
   Max. coefficient     DIISMaxC        ....  10.000
 Trust-Rad. Augm. Hess. CNVTRAH         .... auto
   Auto Start mean grad. ratio tolernc. ....  1.125000
   Auto Start start iteration           ....    20
   Auto Start num. interpolation iter.  ....    10
   Max. Number of Micro iterations      ....    16
   Max. Number of Macro iterations      .... Maxiter - #DIIS iter
   Number of Davidson start vectors     ....     2
   Converg. threshold I  (grad. norm)   ....   1.000e-05
   Converg. threshold II (energy diff.) ....   1.000e-08
   Grad. Scal. Fac. for Micro threshold ....   0.100
   Minimum threshold for Micro iter.    ....   0.010
   NR start threshold (gradient norm)   ....   0.001
   Initial trust radius                 ....   0.400
   Minimum AH scaling param. (alpha)    ....   1.000
   Maximum AH scaling param. (alpha)    .... 1000.000
   Orbital update algorithm             .... Taylor
   White noise on init. David. guess    .... on
   Maximum white noise                  ....   0.010
   Quad. conv. algorithm                .... NR
 SOSCF                  CNVSOSCF        .... off
 Level Shifting         CNVShift        .... on
   Level shift para.    LevelShift      ....    0.2500
   Turn off err/grad.   ShiftErr        ....    0.0010
 Zerner damping         CNVZerner       .... off
 Static damping         CNVDamp         .... on
   Fraction old density DampFac         ....    0.7000
   Max. Damping (<1)    DampMax         ....    0.9800
   Min. Damping (>=0)   DampMin         ....    0.0000
   Turn off err/grad.   DampErr         ....    0.1000
 Fernandez-Rico         CNVRico         .... off

SCF Procedure:
 Maximum # iterations   MaxIter         ....   125
 SCF integral mode      SCFMode         .... Direct
   Integral package                     .... SHARK and LIBINT hybrid scheme
 Reset frequency        DirectResetFreq ....    20
 Integral Threshold     Thresh          ....  2.500e-11 Eh
 Primitive CutOff       TCut            ....  2.500e-12 Eh

Convergence Tolerance:
 Convergence Check Mode ConvCheckMode   .... Total+1el-Energy
 Convergence forced     ConvForced      .... 0
 Energy Change          TolE            ....  1.000e-08 Eh
 1-El. energy change                    ....  1.000e-05 Eh
 DIIS Error             TolErr          ....  5.000e-07


Diagonalization of the overlap matrix:
Smallest eigenvalue                        ... 5.444e-05
Time for diagonalization                   ...    0.002 sec
Threshold for overlap eigenvalues          ... 1.000e-08
Number of eigenvalues below threshold      ... 0
Time for construction of square roots      ...    0.015 sec
Total time needed                          ...    0.018 sec

Time for model grid setup =    0.043 sec

------------------------------
INITIAL GUESS: MODEL POTENTIAL
------------------------------
Loading Hartree-Fock densities                     ... done
Calculating cut-offs                               ... done
Initializing the effective Hamiltonian             ... done
Setting up the integral package (SHARK)            ... done
Starting the Coulomb interaction                   ... done (   0.1 sec)
Reading the grid                                   ... done
Mapping shells                                     ... done
Starting the XC term evaluation                    ... done (   0.0 sec)
  promolecular density results
     # of electrons  =      8.998071915
     EX              =     -5.933802069
     EC              =     -0.259387665
     EX+EC           =     -6.193189734
Transforming the Hamiltonian                       ... done (   0.0 sec)
Diagonalizing the Hamiltonian                      ... done (   0.0 sec)
Back transforming the eigenvectors                 ... done (   0.0 sec)
Now organizing SCF variables                       ... done
                      ------------------
                      INITIAL GUESS DONE (   0.1 sec)
                      ------------------
-------------------
DFT GRID GENERATION
-------------------

General Integration Accuracy     IntAcc      ... 4.388
Radial Grid Type                 RadialGrid  ... OptM3 with GC (2021)
Angular Grid (max. ang.)         AngularGrid ... 4 (Lebedev-302)
Angular grid pruning method      GridPruning ... 4 (adaptive)
Weight generation scheme         WeightScheme... Becke
Basis function cutoff            BFCut       ... 1.0000e-11
Integration weight cutoff        WCut        ... 1.0000e-14
Angular grids for H and He will be reduced by one unit
Partially contracted basis set               ... off
Rotationally invariant grid construction     ... off

Total number of grid points                  ...    17038
Total number of batches                      ...      269
Average number of points per batch           ...       63
Average number of grid points per atom       ...     4260
Time for grid setup =    0.099 sec

--------------------
COSX GRID GENERATION
--------------------

GRIDX 1
-------
General Integration Accuracy     IntAcc      ... 3.816
Radial Grid Type                 RadialGrid  ... OptM3 with GC (2021)
Angular Grid (max. ang.)         AngularGrid ... 1 (Lebedev-50)
Angular grid pruning method      GridPruning ... 4 (adaptive)
Weight generation scheme         WeightScheme... Becke
Basis function cutoff            BFCut       ... 1.0000e-11
Integration weight cutoff        WCut        ... 1.0000e-14
Angular grids for H and He will be reduced by one unit
Partially contracted basis set               ... on
Rotationally invariant grid construction     ... off

Total number of grid points                  ...     2153
Total number of batches                      ...       36
Average number of points per batch           ...       59
Average number of grid points per atom       ...      538
UseSFitting                                  ... on

GRIDX 2
-------
General Integration Accuracy     IntAcc      ... 4.020
Radial Grid Type                 RadialGrid  ... OptM3 with GC (2021)
Angular Grid (max. ang.)         AngularGrid ... 2 (Lebedev-110)
Angular grid pruning method      GridPruning ... 4 (adaptive)
Weight generation scheme         WeightScheme... Becke
Basis function cutoff            BFCut       ... 1.0000e-11
Integration weight cutoff        WCut        ... 1.0000e-14
Angular grids for H and He will be reduced by one unit
Partially contracted basis set               ... on
Rotationally invariant grid construction     ... off

Total number of grid points                  ...     5056
Total number of batches                      ...       82
Average number of points per batch           ...       61
Average number of grid points per atom       ...     1264
UseSFitting                                  ... on

GRIDX 3
-------
General Integration Accuracy     IntAcc      ... 4.338
Radial Grid Type                 RadialGrid  ... OptM3 with GC (2021)
Angular Grid (max. ang.)         AngularGrid ... 3 (Lebedev-194)
Angular grid pruning method      GridPruning ... 4 (adaptive)
Weight generation scheme         WeightScheme... Becke
Basis function cutoff            BFCut       ... 1.0000e-11
Integration weight cutoff        WCut        ... 1.0000e-14
Angular grids for H and He will be reduced by one unit
Partially contracted basis set               ... on
Rotationally invariant grid construction     ... off

Total number of grid points                  ...    11746
Total number of batches                      ...      185
Average number of points per batch           ...       63
Average number of grid points per atom       ...     2936
UseSFitting                                  ... on

Time for X-Grid setup             =    0.255 sec

--------------
SCF ITERATIONS
--------------
ITER       Energy         Delta-E        Max-DP      RMS-DP      [F,P]     Damp
               ***  Starting incremental Fock matrix formation  ***
  0    -39.7942080904   0.000000000000 0.03330198  0.00086322  0.0779610 0.7000
  1    -39.8079652525  -0.013757162108 0.03330693  0.00076542  0.0498243 0.7000
                               ***Turning on DIIS***
  2    -39.8156834644  -0.007718211907 0.07571185  0.00174320  0.0285808 0.0000
  3    -39.8288755628  -0.013192098464 0.02114365  0.00050558  0.0195817 0.0000
  4    -39.8304682852  -0.001592722345 0.00871347  0.00016465  0.0035286 0.0000
  5    -39.8305358317  -0.000067546459 0.00705801  0.00012887  0.0015844 0.0000
  6    -39.8305560193  -0.000020187600 0.00679293  0.00012171  0.0006338 0.0000
               *** Restarting incremental Fock matrix formation ***
                                   *** Resetting DIIS ***
  7    -39.8305687498  -0.000012730522 0.00102786  0.00001774  0.0000814 0.0000
  8    -39.8305688776  -0.000000127830 0.00046986  0.00000842  0.0000385 0.0000
  9    -39.8305689114  -0.000000033840 0.00001627  0.00000077  0.0000146 0.0000
 10    -39.8305689134  -0.000000001989 0.00000842  0.00000022  0.0000053 0.0000
                 **** Energy Check signals convergence ****

               *****************************************************
               *                     SUCCESS                       *
               *           SCF CONVERGED AFTER  11 CYCLES          *
               *****************************************************

Old exchange energy                            =     -2.173814441 Eh
New exchange energy                            =     -2.173820320 Eh
Exchange energy change after final integration =     -0.000005879 Eh
Total energy after final integration           =    -39.830574793 Eh
Final COS-X integration done in                =     0.115 sec

----------------
TOTAL SCF ENERGY
----------------

Total Energy       :          -39.83057479 Eh           -1083.84504 eV

Components:
Nuclear Repulsion  :            9.71143544 Eh             264.26159 eV
Electronic Energy  :          -49.54201023 Eh           -1348.10663 eV
One Electron Energy:          -71.71065442 Eh           -1951.34611 eV
Two Electron Energy:           22.16864419 Eh             603.23948 eV
Max COSX asymmetry :            0.00000012 Eh               0.00000 eV

Virial components:
Potential Energy   :          -79.48010164 Eh           -2162.76352 eV
Kinetic Energy     :           39.64952684 Eh            1078.91848 eV
Virial Ratio       :            2.00456621


DFT components:
N(Alpha)           :        5.000000004153 electrons
N(Beta)            :        4.000000732586 electrons
N(Total)           :        9.000000736739 electrons
E(XC)              :       -4.315104146395 Eh       
DFET-embed. en.    :        0.000000000000 Eh       

---------------
SCF CONVERGENCE
---------------

  Last Energy change         ...   -5.1651e-10  Tolerance :   1.0000e-08
  Last MAX-Density change    ...    0.0000e+00  Tolerance :   1.0000e-07
  Last RMS-Density change    ...    0.0000e+00  Tolerance :   5.0000e-09
  Last DIIS Error            ...    1.2749e-06  Tolerance :   5.0000e-07

             **** THE GBW FILE WAS UPDATED (/beegfs/scratch/ispackman/PFAS_EPR_calcs/benchmark/JChemEd_CF3_radical/CH3_radical_111.0_degrees_IN-PROGRESS/CH3_radical_111.0_degrees.gbw) ****
             **** DENSITY /beegfs/scratch/ispackman/PFAS_EPR_calcs/benchmark/JChemEd_CF3_radical/CH3_radical_111.0_degrees_IN-PROGRESS/CH3_radical_111.0_degrees.scfp WAS UPDATED ****
             **** ENERGY FILE WAS UPDATED (/beegfs/scratch/ispackman/PFAS_EPR_calcs/benchmark/JChemEd_CF3_radical/CH3_radical_111.0_degrees_IN-PROGRESS/CH3_radical_111.0_degrees.en.tmp) ****
----------------------
UHF SPIN CONTAMINATION
----------------------

Warning: in a DFT calculation there is little theoretical justification to 
         calculate <S**2> as in Hartree-Fock theory. We will do it anyways
         but you should keep in mind that the values have only limited relevance

Expectation value of <S**2>     :     0.753047
Ideal value S*(S+1) for S=0.5   :     0.750000
Deviation                       :     0.003047

             **** THE GBW FILE WAS UPDATED (/beegfs/scratch/ispackman/PFAS_EPR_calcs/benchmark/JChemEd_CF3_radical/CH3_radical_111.0_degrees_IN-PROGRESS/CH3_radical_111.0_degrees.gbw) ****
             **** DENSITY /beegfs/scratch/ispackman/PFAS_EPR_calcs/benchmark/JChemEd_CF3_radical/CH3_radical_111.0_degrees_IN-PROGRESS/CH3_radical_111.0_degrees.scfp WAS UPDATED ****
----------------
ORBITAL ENERGIES
----------------
                 SPIN UP ORBITALS
  NO   OCC          E(Eh)            E(eV) 
   0   1.0000     -10.289693      -279.9968 
   1   1.0000      -0.809269       -22.0213 
   2   1.0000      -0.510350       -13.8873 
   3   1.0000      -0.510324       -13.8866 
   4   1.0000      -0.354398        -9.6437 
   5   0.0000       0.076220         2.0740 
   6   0.0000       0.161490         4.3944 
   7   0.0000       0.161500         4.3946 
   8   0.0000       0.197470         5.3734 
   9   0.0000       0.197478         5.3737 
  10   0.0000       0.198532         5.4023 
  11   0.0000       0.222897         6.0653 
  12   0.0000       0.254363         6.9216 
  13   0.0000       0.254369         6.9217 
  14   0.0000       0.311426         8.4743 
  15   0.0000       0.360585         9.8120 
  16   0.0000       0.360592         9.8122 
  17   0.0000       0.368714        10.0332 
  18   0.0000       0.373260        10.1569 
  19   0.0000       0.386279        10.5112 
  20   0.0000       0.386281        10.5113 
  21   0.0000       0.419983        11.4283 
  22   0.0000       0.419992        11.4286 
  23   0.0000       0.520253        14.1568 
  24   0.0000       0.549405        14.9501 
  25   0.0000       0.549408        14.9501 
  26   0.0000       0.554782        15.0964 
  27   0.0000       0.781065        21.2539 
  28   0.0000       0.797372        21.6976 
  29   0.0000       0.797372        21.6976 
  30   0.0000       0.879921        23.9439 
  31   0.0000       0.879931        23.9441 
  32   0.0000       1.015058        27.6211 
  33   0.0000       1.125318        30.6214 
  34   0.0000       1.125377        30.6231 
  35   0.0000       1.613576        43.9076 
  36   0.0000       1.702148        46.3178 
  37   0.0000       1.748392        47.5762 
  38   0.0000       1.779237        48.4155 
  39   0.0000       1.779267        48.4163 
  40   0.0000       1.923145        52.3314 
  41   0.0000       1.923199        52.3329 
  42   0.0000       2.135569        58.1118 
  43   0.0000       2.260750        61.5181 
  44   0.0000       2.351601        63.9903 
  45   0.0000       2.351694        63.9929 
  46   0.0000       2.516392        68.4745 
  47   0.0000       2.516471        68.4767 
  48   0.0000       2.719631        74.0049 
  49   0.0000       2.719666        74.0059 
  50   0.0000       2.848654        77.5158 
  51   0.0000       3.033947        82.5579 
  52   0.0000       3.162555        86.0575 
  53   0.0000       3.162618        86.0592 
  54   0.0000       3.289599        89.5145 
  55   0.0000       3.289601        89.5146 
  56   0.0000       3.503951        95.3474 
  57   0.0000       3.533646        96.1554 
  58   0.0000       3.608362        98.1885 
  59   0.0000       3.608381        98.1890 
  60   0.0000       4.386962       119.3753 
  61   0.0000       4.387012       119.3767 
  62   0.0000       4.607961       125.3890 
  63   0.0000      22.196709       604.0032 

                 SPIN DOWN ORBITALS
  NO   OCC          E(Eh)            E(eV) 
   0   1.0000     -10.278962      -279.7048 
   1   1.0000      -0.768711       -20.9177 
   2   1.0000      -0.496416       -13.5082 
   3   1.0000      -0.496341       -13.5061 
   4   0.0000      -0.008778        -0.2389 
   5   0.0000       0.085707         2.3322 
   6   0.0000       0.166083         4.5193 
   7   0.0000       0.166096         4.5197 
   8   0.0000       0.200501         5.4559 
   9   0.0000       0.200509         5.4561 
  10   0.0000       0.233656         6.3581 
  11   0.0000       0.241742         6.5781 
  12   0.0000       0.259574         7.0634 
  13   0.0000       0.259580         7.0635 
  14   0.0000       0.322682         8.7806 
  15   0.0000       0.371341        10.1047 
  16   0.0000       0.371360        10.1052 
  17   0.0000       0.373306        10.1582 
  18   0.0000       0.376015        10.2319 
  19   0.0000       0.393385        10.7046 
  20   0.0000       0.393387        10.7046 
  21   0.0000       0.429348        11.6831 
  22   0.0000       0.429349        11.6832 
  23   0.0000       0.547274        14.8921 
  24   0.0000       0.551439        15.0054 
  25   0.0000       0.551444        15.0056 
  26   0.0000       0.570103        15.5133 
  27   0.0000       0.790710        21.5163 
  28   0.0000       0.807230        21.9659 
  29   0.0000       0.807237        21.9660 
  30   0.0000       0.905933        24.6517 
  31   0.0000       0.905934        24.6517 
  32   0.0000       1.037329        28.2272 
  33   0.0000       1.132702        30.8224 
  34   0.0000       1.132776        30.8244 
  35   0.0000       1.676873        45.6300 
  36   0.0000       1.702761        46.3345 
  37   0.0000       1.765907        48.0528 
  38   0.0000       1.788480        48.6670 
  39   0.0000       1.788537        48.6686 
  40   0.0000       1.939155        52.7671 
  41   0.0000       1.939172        52.7675 
  42   0.0000       2.148083        58.4523 
  43   0.0000       2.267080        61.6904 
  44   0.0000       2.363030        64.3013 
  45   0.0000       2.363192        64.3057 
  46   0.0000       2.522929        68.6524 
  47   0.0000       2.523052        68.6557 
  48   0.0000       2.737328        74.4865 
  49   0.0000       2.737373        74.4877 
  50   0.0000       2.884275        78.4851 
  51   0.0000       3.075533        83.6895 
  52   0.0000       3.214554        87.4725 
  53   0.0000       3.214601        87.4738 
  54   0.0000       3.325287        90.4856 
  55   0.0000       3.325389        90.4884 
  56   0.0000       3.520880        95.8080 
  57   0.0000       3.571882        97.1959 
  58   0.0000       3.648991        99.2941 
  59   0.0000       3.649056        99.2959 
  60   0.0000       4.408425       119.9593 
  61   0.0000       4.408539       119.9625 
  62   0.0000       4.633356       126.0800 
  63   0.0000      22.217034       604.5562 

                    ********************************
                    * MULLIKEN POPULATION ANALYSIS *
                    ********************************

--------------------------------------------
MULLIKEN ATOMIC CHARGES AND SPIN POPULATIONS
--------------------------------------------
   0 C :   -0.711049    0.886788
   1 H :    0.236783    0.037699
   2 H :    0.237132    0.037756
   3 H :    0.237135    0.037757
Sum of atomic charges         :   -0.0000000
Sum of atomic spin populations:    1.0000000

-----------------------------------------------------
MULLIKEN REDUCED ORBITAL CHARGES AND SPIN POPULATIONS
-----------------------------------------------------
CHARGE
  0 C s       :     3.391500  s :     3.391500
      pz      :     0.930861  p :     3.279918
      px      :     1.174386
      py      :     1.174671
      dz2     :     0.002229  d :     0.038357
      dxz     :     0.008945
      dyz     :     0.008957
      dx2y2   :     0.009101
      dxy     :     0.009124
      f0      :     0.000407  f :     0.001275
      f+1     :     0.000167
      f-1     :     0.000166
      f+2     :    -0.000101
      f-2     :    -0.000101
      f+3     :     0.000736
      f-3     :     0.000000
  1 H s       :     0.715885  s :     0.715885
      pz      :     0.022938  p :     0.047332
      px      :     0.021674
      py      :     0.002720
  2 H s       :     0.715628  s :     0.715628
      pz      :     0.022865  p :     0.047241
      px      :     0.007445
      py      :     0.016931
  3 H s       :     0.715625  s :     0.715625
      pz      :     0.022865  p :     0.047241
      px      :     0.007444
      py      :     0.016932

SPIN
  0 C s       :    -0.008522  s :    -0.008522
      pz      :     0.885408  p :     0.902704
      px      :     0.008673
      py      :     0.008623
      dz2     :    -0.002304  d :    -0.006339
      dxz     :    -0.002173
      dyz     :    -0.002172
      dx2y2   :     0.000161
      dxy     :     0.000150
      f0      :    -0.000295  f :    -0.001055
      f+1     :    -0.000294
      f-1     :    -0.000294
      f+2     :    -0.000015
      f-2     :    -0.000015
      f+3     :    -0.000142
      f-3     :    -0.000000
  1 H s       :     0.011353  s :     0.011353
      pz      :     0.021177  p :     0.026345
      px      :     0.001995
      py      :     0.003174
  2 H s       :     0.011482  s :     0.011482
      pz      :     0.021106  p :     0.026274
      px      :     0.002885
      py      :     0.002283
  3 H s       :     0.011484  s :     0.011484
      pz      :     0.021106  p :     0.026274
      px      :     0.002885
      py      :     0.002283


                     *******************************
                     * LOEWDIN POPULATION ANALYSIS *
                     *******************************

-------------------------------------------
LOEWDIN ATOMIC CHARGES AND SPIN POPULATIONS
-------------------------------------------
   0 C :    0.059211    0.833552
   1 H :   -0.019751    0.055497
   2 H :   -0.019730    0.055475
   3 H :   -0.019730    0.055475

----------------------------------------------------
LOEWDIN REDUCED ORBITAL CHARGES AND SPIN POPULATIONS
----------------------------------------------------
CHARGE
  0 C s       :     2.913006  s :     2.913006
      pz      :     0.779202  p :     2.902365
      px      :     1.061605
      py      :     1.061558
      dz2     :     0.008939  d :     0.115573
      dxz     :     0.014841
      dyz     :     0.014840
      dx2y2   :     0.038469
      dxy     :     0.038484
      f0      :     0.001004  f :     0.009844
      f+1     :     0.000574
      f-1     :     0.000573
      f+2     :     0.002232
      f-2     :     0.002233
      f+3     :     0.003229
      f-3     :     0.000000
  1 H s       :     0.759578  s :     0.759578
      pz      :     0.067932  p :     0.260173
      px      :     0.123431
      py      :     0.068809
  2 H s       :     0.759578  s :     0.759578
      pz      :     0.067920  p :     0.260152
      px      :     0.082450
      py      :     0.109783
  3 H s       :     0.759578  s :     0.759578
      pz      :     0.067920  p :     0.260152
      px      :     0.082450
      py      :     0.109783

SPIN
  0 C s       :     0.065017  s :     0.065017
      pz      :     0.744067  p :     0.777060
      px      :     0.016477
      py      :     0.016515
      dz2     :    -0.000306  d :    -0.007732
      dxz     :    -0.001818
      dyz     :    -0.001815
      dx2y2   :    -0.001889
      dxy     :    -0.001904
      f0      :    -0.000216  f :    -0.000793
      f+1     :    -0.000248
      f-1     :    -0.000248
      f+2     :    -0.000111
      f-2     :    -0.000111
      f+3     :     0.000141
      f-3     :    -0.000000
  1 H s       :    -0.007273  s :    -0.007273
      pz      :     0.060185  p :     0.062770
      px      :     0.003201
      py      :    -0.000616
  2 H s       :    -0.007276  s :    -0.007276
      pz      :     0.060167  p :     0.062751
      px      :     0.000344
      py      :     0.002241
  3 H s       :    -0.007276  s :    -0.007276
      pz      :     0.060167  p :     0.062751
      px      :     0.000344
      py      :     0.002241


                      *****************************
                      * MAYER POPULATION ANALYSIS *
                      *****************************

  NA   - Mulliken gross atomic population
  ZA   - Total nuclear charge
  QA   - Mulliken gross atomic charge
  VA   - Mayer's total valence
  BVA  - Mayer's bonded valence
  FA   - Mayer's free valence

  ATOM       NA         ZA         QA         VA         BVA        FA
  0 C      6.7110     6.0000    -0.7110     3.7709     2.9502     0.8207
  1 H      0.7632     1.0000     0.2368     1.0081     1.0067     0.0014
  2 H      0.7629     1.0000     0.2371     1.0077     1.0063     0.0014
  3 H      0.7629     1.0000     0.2371     1.0077     1.0063     0.0014

  Mayer bond orders larger than 0.100000
B(  0-C ,  1-H ) :   0.9837 B(  0-C ,  2-H ) :   0.9832 B(  0-C ,  3-H ) :   0.9832 


-------
TIMINGS
-------

Total SCF time: 0 days 0 hours 0 min 7 sec 

Total time                  ....       7.979 sec
Sum of individual times     ....       7.269 sec  ( 91.1%)

Fock matrix formation       ....       6.082 sec  ( 76.2%)
  Split-RI-J                ....       0.811 sec  ( 13.3% of F)
  Chain of spheres X        ....       1.286 sec  ( 21.2% of F)
  XC integration            ....       1.392 sec  ( 22.9% of F)
    Basis function eval.    ....       0.050 sec  (  3.6% of XC)
    Density eval.           ....       0.048 sec  (  3.5% of XC)
    XC-Functional eval.     ....       0.053 sec  (  3.8% of XC)
    XC-Potential eval.      ....       0.071 sec  (  5.1% of XC)
Diagonalization             ....       0.158 sec  (  2.0%)
Density matrix formation    ....       0.009 sec  (  0.1%)
Population analysis         ....       0.147 sec  (  1.8%)
Initial guess               ....       0.088 sec  (  1.1%)
Orbital Transformation      ....       0.000 sec  (  0.0%)
Orbital Orthonormalization  ....       0.000 sec  (  0.0%)
DIIS solution               ....       0.387 sec  (  4.9%)
Grid generation             ....       0.397 sec  (  5.0%)

Maximum memory used throughout the entire SCF-calculation: 58.5 MB


-------------------------------------------------------------------------------
                          DFT DISPERSION CORRECTION                            
                                                                               
                              DFTD3 V3.1  Rev 1                                
                              USING zero damping                               
-------------------------------------------------------------------------------
The omegaB97X-D3 functional is recognized. Fit by Chai et al.
Active option DFTDOPT                   ...         3   

molecular C6(AA) [au] = 106.961183 


            DFT-D V3
 parameters
 s6 scaling factor         :     1.0000 
 rs6 scaling factor        :     1.2810 
 s8 scaling factor         :     1.0000 
 rs8 scaling factor        :     1.0940 
 Damping factor alpha6     :    14.0000 
 Damping factor alpha8     :    16.0000 
 ad hoc parameters k1-k3   :    16.0000     1.3333    -4.0000 

 Edisp/kcal,au: -0.007822284106  -0.000012465602 
 E6   /kcal   :  -0.001219235 
 E8   /kcal   :  -0.006603049 
 % E8         :  84.413309016 

-------------------------   ----------------
Dispersion correction           -0.000012466
-------------------------   ----------------


-------------------------   --------------------
FINAL SINGLE POINT ENERGY       -39.830587258807
-------------------------   --------------------



           ************************************************************
           *        Program running with 18 parallel MPI-processes    *
           *              working on a common directory               *
           ************************************************************
------------------------------------------------------------------------------
                         ORCA SCF GRADIENT CALCULATION
------------------------------------------------------------------------------

 ... reading COSX grid (gridx3)
Gradient of the Kohn-Sham DFT energy:
Kohn-Sham wavefunction type      ... UKS
Hartree-Fock exchange scaling    ...    0.196
Number of operators              ...    2
Number of atoms                  ...    4
Basis set dimensions             ...   64
Integral neglect threshold       ... 2.5e-11
Integral primitive cutoff        ... 2.5e-12
SHARK Integral package           ... ON

Nuc. rep. gradient       (SHARK) ... done (  0.0 sec)
HCore & Overlap gradient (SHARK) ... done (  0.0 sec)
RI-J gradient            (SHARK) ... done (  0.1 sec)
COSX-gradient                    ... done (  0.1 sec)
Exchange-correlation gradient    ... done
Dispersion correction            ... done

------------------
CARTESIAN GRADIENT
------------------

WARNING: THERE ARE 3 CONSTRAINED CARTESIAN COORDINATES
   1   C   :    0.000042378    0.000000021    0.031893695
   2   H   :   -0.009177438    0.000000006   -0.010633534
   3   H   :    0.004578251   -0.007968656   -0.010640500
   4   H   :    0.004578224    0.007968641   -0.010640483

Difference to translation invariance:
           :    0.0000214154    0.0000000121   -0.0000208221

Difference to rotation invariance:
           :   -0.0000000340   -0.0000003659   -0.0000000194

Norm of the cartesian gradient     ...    0.0401231402
RMS gradient                       ...    0.0115825529
MAX gradient                       ...    0.0318936953

-------
TIMINGS
-------

Total SCF gradient time            ...        0.606 sec

One electron gradient       ....       0.006 sec  (  1.0%)
RI-J Coulomb gradient       ....       0.137 sec  ( 22.6%)
COSX gradient               ....       0.123 sec  ( 20.3%)
XC gradient                 ....       0.060 sec  (  9.8%)

Maximum memory used throughout the entire SCFGRAD-calculation: 33.6 MB
------------------------------------------------------------------------------
                         ORCA GEOMETRY RELAXATION STEP
------------------------------------------------------------------------------

Reading the OPT-File                    .... done
Getting information on internals        .... done
Copying old internal coords+grads       .... done
Making the new internal coordinates     .... (new redundants).... done
Validating the new internal coordinates .... (new redundants).... done
Calculating the B-matrix                .... done
Calculating the G,G- and P matrices     .... done
Transforming gradient to internals      .... done
Projecting the internal gradient        .... done
Number of atoms                         ....   4
Number of internal coordinates          ....   7
Current Energy                          ....   -39.830587259 Eh
Current gradient norm                   ....     0.040123140 Eh/bohr
Maximum allowed component of the step   ....  0.300
Current trust radius                    ....  0.300
Evaluating the initial hessian          ....  (Almloef) done
Projecting the Hessian                  .... done
Forming the augmented Hessian           .... done
Diagonalizing the augmented Hessian     .... done
Last element of RFO vector              ....  0.999678479
Lowest eigenvalues of augmented Hessian:
 -0.000240495  0.373574723  0.373574723  0.373815218 1000.000000000
Length of the computed step             ....  0.025364372
The final length of the internal step   ....  0.025364372
Converting the step to cartesian space:
 Initial RMS(Int)=    0.0095868314
Transforming coordinates:
 Iter   0:  RMS(Cart)=    0.0070580436 RMS(Int)=    0.0095868314
 Iter   1:  RMS(Cart)=    0.0000000000 RMS(Int)=    0.0000000000
Imposing constraints:
 Iter   0:  RMS(Cart)=    0.0000000001 RMS(Int)=    0.0000000002
CONVERGED
done
Storing new coordinates                 .... done

                                .--------------------.
          ----------------------|Geometry convergence|-------------------------
          Item                value                   Tolerance       Converged
          ---------------------------------------------------------------------
          RMS gradient        0.0035837035            0.0001000000      NO
          MAX gradient        0.0054746267            0.0003000000      NO
          RMS step            0.0095868314            0.0020000000      NO
          MAX step            0.0146452750            0.0040000000      NO
          ........................................................
          Max(Bonds)      0.0077      Max(Angles)    0.00
          Max(Dihed)        0.00      Max(Improp)    0.00
          ---------------------------------------------------------------------

The optimization has not yet converged - more geometry cycles are needed


    ---------------------------------------------------------------------------
                         Redundant Internal Coordinates
                            (Angstroem and degrees)

        Definition                    Value    dE/dq     Step     New-Value
    ----------------------------------------------------------------------------
     1. B(H   1,C   0)                1.0800 -0.005473  0.0077    1.0877   
     2. B(H   2,C   0)                1.0800 -0.005475  0.0077    1.0877   
     3. B(H   3,C   0)                1.0800 -0.005475  0.0077    1.0877   
     4. A(H   2,C   0,H   3)          111.00 -0.015576    0.00    111.00 C 
     5. A(H   1,C   0,H   2)          111.00 -0.005585   -0.00    111.00 C 
     6. A(H   1,C   0,H   3)          111.00 -0.005585    0.00    111.00 C 
     7. I(H   1,H   3,H   2,C   0)     50.75  0.021146    0.00     50.75   
    ----------------------------------------------------------------------------

         *************************************************************
         *                GEOMETRY OPTIMIZATION CYCLE   2            *
         *************************************************************
---------------------------------
CARTESIAN COORDINATES (ANGSTROEM)
---------------------------------
  C      0.000000   -0.000000    0.001786
  H      1.035122   -0.000000   -0.332458
  H     -0.517561    0.896443   -0.332458
  H     -0.517561   -0.896443   -0.332458

----------------------------
CARTESIAN COORDINATES (A.U.)
----------------------------
  NO LB      ZA    FRAG     MASS         X           Y           Z
   0 C     6.0000    0    12.011    0.000001   -0.000000    0.003375
   1 H     1.0000    0     1.008    1.956097   -0.000000   -0.628255
   2 H     1.0000    0     1.008   -0.978049    1.694032   -0.628255
   3 H     1.0000    0     1.008   -0.978049   -1.694032   -0.628255

--------------------------------
INTERNAL COORDINATES (ANGSTROEM)
--------------------------------
 C      0   0   0     0.000000000000     0.00000000     0.00000000
 H      1   0   0     1.087748165330     0.00000000     0.00000000
 H      1   2   0     1.087749945744   111.00000000     0.00000000
 H      1   2   3     1.087749903198   111.00000000   123.95389692

---------------------------
INTERNAL COORDINATES (A.U.)
---------------------------
 C      0   0   0     0.000000000000     0.00000000     0.00000000
 H      1   0   0     2.055546135150     0.00000000     0.00000000
 H      1   2   0     2.055549499644   111.00000000     0.00000000
 H      1   2   3     2.055549419244   111.00000000   123.95389692



           ************************************************************
           *        Program running with 18 parallel MPI-processes    *
           *              working on a common directory               *
           ************************************************************
------------------------------------------------------------------------------
                   ___                                                        
                  /   \      - P O W E R E D   B Y -                         
                 /     \                                                     
                 |  |  |   _    _      __       _____    __    __             
                 |  |  |  | |  | |    /  \     |  _  \  |  |  /  |          
                  \  \/   | |  | |   /    \    | | | |  |  | /  /          
                 / \  \   | |__| |  /  /\  \   | |_| |  |  |/  /          
                |  |  |   |  __  | /  /__\  \  |    /   |      \           
                |  |  |   | |  | | |   __   |  |    \   |  |\   \          
                \     /   | |  | | |  |  |  |  | |\  \  |  | \   \       
                 \___/    |_|  |_| |__|  |__|  |_| \__\ |__|  \__/        
                                                                              
                      - O R C A' S   B I G   F R I E N D -                    
                                      &                                       
                       - I N T E G R A L  F E E D E R -                       
                                                                              
 v1 FN, 2020, v2 2021                                                         
------------------------------------------------------------------------------


Reading SHARK input file /beegfs/scratch/ispackman/PFAS_EPR_calcs/benchmark/JChemEd_CF3_radical/CH3_radical_111.0_degrees_IN-PROGRESS/CH3_radical_111.0_degrees.SHARKINP.tmp ... ok
----------------------
SHARK INTEGRAL PACKAGE
----------------------

Number of atoms                             ...      4
Number of basis functions                   ...     64
Number of shells                            ...     28
Maximum angular momentum                    ...      3
Integral batch strategy                     ... SHARK/LIBINT Hybrid
RI-J (if used) integral strategy            ... SPLIT-RIJ (Revised 2003 algorithm where possible)
Printlevel                                  ...      1
Contraction scheme used                     ... SEGMENTED contraction
Coulomb Range Separation                    ... NOT USED
Exchange Range Separation                   ... Long Range
   Mu parameter                             ...  0.250000
   Scaling (regular/separated)              ...  0.195728  0.804272
Finite Nucleus Model                        ... NOT USED
Auxiliary Coulomb fitting basis             ... AVAILABLE
   # of basis functions in Aux-J            ...     82
   # of shells in Aux-J                     ...     30
   Maximum angular momentum in Aux-J        ...      4
Auxiliary J/K fitting basis                 ... NOT available
Auxiliary Correlation fitting basis         ... NOT available
Auxiliary 'external' fitting basis          ... NOT available
Integral threshold                          ...     2.500000e-11
Primitive cut-off                           ...     2.500000e-12
Primitive pair pre-selection threshold      ...     2.500000e-12

Calculating pre-screening integrals         ... done (  0.0 sec) Dimension = 28
Organizing shell pair data                  ... done (  0.0 sec)
Shell pair information
Total number of shell pairs                 ...       406
Shell pairs after pre-screening             ...       406
Total number of primitive shell pairs       ...       977
Primitive shell pairs kept                  ...       944
          la=0 lb=0:    120 shell pairs
          la=1 lb=0:    135 shell pairs
          la=1 lb=1:     45 shell pairs
          la=2 lb=0:     45 shell pairs
          la=2 lb=1:     27 shell pairs
          la=2 lb=2:      6 shell pairs
          la=3 lb=0:     15 shell pairs
          la=3 lb=1:      9 shell pairs
          la=3 lb=2:      3 shell pairs
          la=3 lb=3:      1 shell pairs

Calculating one electron integrals          ... done (  0.0 sec)
Calculating RI/J V-Matrix + Cholesky decomp.... done (  0.0 sec)
Calculating Nuclear repulsion               ... done (  0.0 sec) ENN=      9.642249282103 Eh

SHARK setup successfully completed in   0.3 seconds

Maximum memory used throughout the entire GTOINT-calculation: 14.0 MB


           ************************************************************
           *        Program running with 18 parallel MPI-processes    *
           *              working on a common directory               *
           ************************************************************

Diagonalization of the overlap matrix:
Smallest eigenvalue                        ... 5.719e-05
Time for diagonalization                   ...    0.002 sec
Threshold for overlap eigenvalues          ... 1.000e-08
Number of eigenvalues below threshold      ... 0
Time for construction of square roots      ...    0.019 sec
Total time needed                          ...    0.022 sec

-------------------
DFT GRID GENERATION
-------------------

General Integration Accuracy     IntAcc      ... 4.388
Radial Grid Type                 RadialGrid  ... OptM3 with GC (2021)
Angular Grid (max. ang.)         AngularGrid ... 4 (Lebedev-302)
Angular grid pruning method      GridPruning ... 4 (adaptive)
Weight generation scheme         WeightScheme... Becke
Basis function cutoff            BFCut       ... 1.0000e-11
Integration weight cutoff        WCut        ... 1.0000e-14
Angular grids for H and He will be reduced by one unit
Partially contracted basis set               ... off
Rotationally invariant grid construction     ... off

Total number of grid points                  ...    17042
Total number of batches                      ...      268
Average number of points per batch           ...       63
Average number of grid points per atom       ...     4260
Time for grid setup =    0.119 sec

--------------------
COSX GRID GENERATION
--------------------

GRIDX 1
-------
General Integration Accuracy     IntAcc      ... 3.816
Radial Grid Type                 RadialGrid  ... OptM3 with GC (2021)
Angular Grid (max. ang.)         AngularGrid ... 1 (Lebedev-50)
Angular grid pruning method      GridPruning ... 4 (adaptive)
Weight generation scheme         WeightScheme... Becke
Basis function cutoff            BFCut       ... 1.0000e-11
Integration weight cutoff        WCut        ... 1.0000e-14
Angular grids for H and He will be reduced by one unit
Partially contracted basis set               ... on
Rotationally invariant grid construction     ... off

Total number of grid points                  ...     2153
Total number of batches                      ...       36
Average number of points per batch           ...       59
Average number of grid points per atom       ...      538
UseSFitting                                  ... on

GRIDX 2
-------
General Integration Accuracy     IntAcc      ... 4.020
Radial Grid Type                 RadialGrid  ... OptM3 with GC (2021)
Angular Grid (max. ang.)         AngularGrid ... 2 (Lebedev-110)
Angular grid pruning method      GridPruning ... 4 (adaptive)
Weight generation scheme         WeightScheme... Becke
Basis function cutoff            BFCut       ... 1.0000e-11
Integration weight cutoff        WCut        ... 1.0000e-14
Angular grids for H and He will be reduced by one unit
Partially contracted basis set               ... on
Rotationally invariant grid construction     ... off

Total number of grid points                  ...     5056
Total number of batches                      ...       81
Average number of points per batch           ...       62
Average number of grid points per atom       ...     1264
UseSFitting                                  ... on

GRIDX 3
-------
General Integration Accuracy     IntAcc      ... 4.338
Radial Grid Type                 RadialGrid  ... OptM3 with GC (2021)
Angular Grid (max. ang.)         AngularGrid ... 3 (Lebedev-194)
Angular grid pruning method      GridPruning ... 4 (adaptive)
Weight generation scheme         WeightScheme... Becke
Basis function cutoff            BFCut       ... 1.0000e-11
Integration weight cutoff        WCut        ... 1.0000e-14
Angular grids for H and He will be reduced by one unit
Partially contracted basis set               ... on
Rotationally invariant grid construction     ... off

Total number of grid points                  ...    11746
Total number of batches                      ...      186
Average number of points per batch           ...       63
Average number of grid points per atom       ...     2936
UseSFitting                                  ... on

Time for X-Grid setup             =    0.236 sec

--------------
SCF ITERATIONS
--------------
ITER       Energy         Delta-E        Max-DP      RMS-DP      [F,P]     Damp
               ***  Starting incremental Fock matrix formation  ***
  0    -39.8306547947   0.000000000000 0.00223647  0.00004570  0.0020101 0.7000
  1    -39.8306657944  -0.000010999727 0.00197761  0.00003929  0.0013699 0.7000
                               ***Turning on DIIS***
  2    -39.8306731739  -0.000007379518 0.00523803  0.00010148  0.0008943 0.0000
               *** Restarting incremental Fock matrix formation ***
                                   *** Resetting DIIS ***
  3    -39.8306896472  -0.000016473272 0.00176146  0.00003365  0.0003814 0.0000
  4    -39.8306901963  -0.000000549105 0.00014417  0.00000535  0.0001905 0.0000
  5    -39.8306903876  -0.000000191277 0.00014102  0.00000342  0.0000429 0.0000
  6    -39.8306904048  -0.000000017243 0.00002267  0.00000089  0.0000113 0.0000
                 **** Energy Check signals convergence ****

               *****************************************************
               *                     SUCCESS                       *
               *           SCF CONVERGED AFTER   7 CYCLES          *
               *****************************************************

Old exchange energy                            =     -2.171712608 Eh
New exchange energy                            =     -2.171718641 Eh
Exchange energy change after final integration =     -0.000006033 Eh
Total energy after final integration           =    -39.830696440 Eh
Final COS-X integration done in                =     0.116 sec
Total Energy       :          -39.83069644 Eh           -1083.84835 eV
  Last Energy change         ...   -1.8275e-09  Tolerance :   1.0000e-08
  Last MAX-Density change    ...    0.0000e+00  Tolerance :   1.0000e-07
             **** THE GBW FILE WAS UPDATED (/beegfs/scratch/ispackman/PFAS_EPR_calcs/benchmark/JChemEd_CF3_radical/CH3_radical_111.0_degrees_IN-PROGRESS/CH3_radical_111.0_degrees.gbw) ****
             **** DENSITY /beegfs/scratch/ispackman/PFAS_EPR_calcs/benchmark/JChemEd_CF3_radical/CH3_radical_111.0_degrees_IN-PROGRESS/CH3_radical_111.0_degrees.scfp WAS UPDATED ****
             **** ENERGY FILE WAS UPDATED (/beegfs/scratch/ispackman/PFAS_EPR_calcs/benchmark/JChemEd_CF3_radical/CH3_radical_111.0_degrees_IN-PROGRESS/CH3_radical_111.0_degrees.en.tmp) ****
----------------------
UHF SPIN CONTAMINATION
----------------------

Warning: in a DFT calculation there is little theoretical justification to 
         calculate <S**2> as in Hartree-Fock theory. We will do it anyways
         but you should keep in mind that the values have only limited relevance

Expectation value of <S**2>     :     0.753102
Ideal value S*(S+1) for S=0.5   :     0.750000
Deviation                       :     0.003102

             **** THE GBW FILE WAS UPDATED (/beegfs/scratch/ispackman/PFAS_EPR_calcs/benchmark/JChemEd_CF3_radical/CH3_radical_111.0_degrees_IN-PROGRESS/CH3_radical_111.0_degrees.gbw) ****
             **** DENSITY /beegfs/scratch/ispackman/PFAS_EPR_calcs/benchmark/JChemEd_CF3_radical/CH3_radical_111.0_degrees_IN-PROGRESS/CH3_radical_111.0_degrees.scfp WAS UPDATED ****
Total SCF time: 0 days 0 hours 0 min 5 sec 

Maximum memory used throughout the entire SCF-calculation: 58.5 MB


-------------------------------------------------------------------------------
                          DFT DISPERSION CORRECTION                            
                                                                               
                              DFTD3 V3.1  Rev 1                                
                              USING zero damping                               
-------------------------------------------------------------------------------
-------------------------   ----------------
Dispersion correction           -0.000013199
-------------------------   ----------------


-------------------------   --------------------
FINAL SINGLE POINT ENERGY       -39.830709638912
-------------------------   --------------------



           ************************************************************
           *        Program running with 18 parallel MPI-processes    *
           *              working on a common directory               *
           ************************************************************
------------------------------------------------------------------------------
                         ORCA SCF GRADIENT CALCULATION
------------------------------------------------------------------------------

 ... reading COSX grid (gridx3)
Gradient of the Kohn-Sham DFT energy:
Kohn-Sham wavefunction type      ... UKS
Hartree-Fock exchange scaling    ...    0.196
Number of operators              ...    2
Number of atoms                  ...    4
Basis set dimensions             ...   64
Integral neglect threshold       ... 2.5e-11
Integral primitive cutoff        ... 2.5e-12
SHARK Integral package           ... ON

Nuc. rep. gradient       (SHARK) ... done (  0.0 sec)
HCore & Overlap gradient (SHARK) ... done (  0.0 sec)
RI-J gradient            (SHARK) ... done (  0.1 sec)
COSX-gradient                    ... done (  0.1 sec)
Exchange-correlation gradient    ... done
Dispersion correction            ... done

------------------
CARTESIAN GRADIENT
------------------

WARNING: THERE ARE 3 CONSTRAINED CARTESIAN COORDINATES
   1   C   :    0.000043637    0.000000009    0.035903552
   2   H   :   -0.003999173   -0.000000002   -0.011972060
   3   H   :    0.001988184   -0.003481719   -0.011977574
   4   H   :    0.001988208    0.003481720   -0.011977596

Difference to translation invariance:
           :    0.0000208564    0.0000000073   -0.0000236780

Difference to rotation invariance:
           :    0.0000000353    0.0000036078    0.0000000354

Norm of the cartesian gradient     ...    0.0420412441
RMS gradient                       ...    0.0121362618
MAX gradient                       ...    0.0359035517

-------
TIMINGS
-------

Total SCF gradient time            ...        0.870 sec

One electron gradient       ....       0.008 sec  (  0.9%)
RI-J Coulomb gradient       ....       0.127 sec  ( 14.5%)
COSX gradient               ....       0.119 sec  ( 13.7%)
XC gradient                 ....       0.056 sec  (  6.4%)

Maximum memory used throughout the entire SCFGRAD-calculation: 33.6 MB
------------------------------------------------------------------------------
                         ORCA GEOMETRY RELAXATION STEP
------------------------------------------------------------------------------

Reading the OPT-File                    .... done
Getting information on internals        .... done
Copying old internal coords+grads       .... done
Making the new internal coordinates     .... (new redundants).... done
Validating the new internal coordinates .... (new redundants).... done
Calculating the B-matrix                .... done
Calculating the G,G- and P matrices     .... done
Transforming gradient to internals      .... done
Projecting the internal gradient        .... done
Number of atoms                         ....   4
Number of internal coordinates          ....   7
Current Energy                          ....   -39.830709639 Eh
Current gradient norm                   ....     0.042041244 Eh/bohr
Maximum allowed component of the step   ....  0.300
Current trust radius                    ....  0.300
Updating the Hessian (BFGS)             .... done
Forming the augmented Hessian           .... done
Diagonalizing the augmented Hessian     .... done
Last element of RFO vector              ....  0.999999797
Lowest eigenvalues of augmented Hessian:
 -0.000000148  0.364661134  0.373574723  0.373574837 1000.000000000
Length of the computed step             ....  0.000636728
The final length of the internal step   ....  0.000636728
Converting the step to cartesian space:
 Initial RMS(Int)=    0.0002406605
Transforming coordinates:
 Iter   0:  RMS(Cart)=    0.0001771794 RMS(Int)=    0.0002406605
 Iter   1:  RMS(Cart)=    0.0000000000 RMS(Int)=    0.0000000000
Imposing constraints:
 Iter   0:  RMS(Cart)=    0.0000000000 RMS(Int)=    0.0000000001
CONVERGED
done
Storing new coordinates                 .... done

                                .--------------------.
          ----------------------|Geometry convergence|-------------------------
          Item                value                   Tolerance       Converged
          ---------------------------------------------------------------------
          Energy change      -0.0001223801            0.0000050000      NO
          RMS gradient        0.0000877595            0.0001000000      YES
          MAX gradient        0.0001346863            0.0003000000      YES
          RMS step            0.0002406605            0.0020000000      YES
          MAX step            0.0003693477            0.0040000000      YES
          ........................................................
          Max(Bonds)      0.0002      Max(Angles)    0.00
          Max(Dihed)        0.00      Max(Improp)    0.00
          ---------------------------------------------------------------------

       Everything but the energy has converged. However, the energy
       appears to be close enough to convergence to make sure that the
       final evaluation at the new geometry represents the equilibrium energy.
       Convergence will therefore be signaled now


                    ***********************HURRAY********************
                    ***        THE OPTIMIZATION HAS CONVERGED     ***
                    *************************************************


    ---------------------------------------------------------------------------
                         Redundant Internal Coordinates

                          --- Optimized Parameters ---  
                            (Angstroem and degrees)

        Definition                    OldVal   dE/dq     Step     FinalVal
    ----------------------------------------------------------------------------
     1. B(H   1,C   0)                1.0877 -0.000135  0.0002    1.0879   
     2. B(H   2,C   0)                1.0877 -0.000134  0.0002    1.0879   
     3. B(H   3,C   0)                1.0877 -0.000134  0.0002    1.0879   
     4. A(H   2,C   0,H   3)          111.00 -0.015300    0.00    111.00 C 
     5. A(H   1,C   0,H   2)          111.00 -0.005487    0.00    111.00 C 
     6. A(H   1,C   0,H   3)          111.00 -0.005487    0.00    111.00 C 
     7. I(H   1,H   3,H   2,C   0)     50.75  0.020772   -0.00     50.75   
    ----------------------------------------------------------------------------
                 *******************************************************
                 *** FINAL ENERGY EVALUATION AT THE STATIONARY POINT ***
                 ***               (AFTER    2 CYCLES)               ***
                 *******************************************************
---------------------------------
CARTESIAN COORDINATES (ANGSTROEM)
---------------------------------
  C      0.000000   -0.000000    0.001831
  H      1.035308   -0.000000   -0.332473
  H     -0.517654    0.896603   -0.332473
  H     -0.517654   -0.896603   -0.332473

----------------------------
CARTESIAN COORDINATES (A.U.)
----------------------------
  NO LB      ZA    FRAG     MASS         X           Y           Z
   0 C     6.0000    0    12.011    0.000000   -0.000000    0.003460
   1 H     1.0000    0     1.008    1.956448   -0.000000   -0.628283
   2 H     1.0000    0     1.008   -0.978224    1.694334   -0.628284
   3 H     1.0000    0     1.008   -0.978224   -1.694334   -0.628283

--------------------------------
INTERNAL COORDINATES (ANGSTROEM)
--------------------------------
 C      0   0   0     0.000000000000     0.00000000     0.00000000
 H      1   0   0     1.087943615696     0.00000000     0.00000000
 H      1   2   0     1.087944014427   111.00000001     0.00000000
 H      1   2   3     1.087943981277   111.00000001   123.95389693

---------------------------
INTERNAL COORDINATES (A.U.)
---------------------------
 C      0   0   0     0.000000000000     0.00000000     0.00000000
 H      1   0   0     2.055915482814     0.00000000     0.00000000
 H      1   2   0     2.055916236305   111.00000001     0.00000000
 H      1   2   3     2.055916173661   111.00000001   123.95389693

---------------------
BASIS SET INFORMATION
---------------------
There are 2 groups of distinct atoms

 Group   1 Type C   : 12s6p3d1f contracted to 6s3p3d1f pattern {621111/411/111/1}
 Group   2 Type H   : 5s2p contracted to 3s2p pattern {311/11}

Atom   0C    basis set group =>   1
Atom   1H    basis set group =>   2
Atom   2H    basis set group =>   2
Atom   3H    basis set group =>   2
---------------------------------
AUXILIARY/J BASIS SET INFORMATION
---------------------------------
There are 2 groups of distinct atoms

 Group   1 Type C   : 12s5p4d2f1g contracted to 6s4p3d1f1g pattern {711111/2111/211/2/1}
 Group   2 Type H   : 5s2p1d contracted to 3s1p1d pattern {311/2/1}

[...]

  NA   - Mulliken gross atomic population
  ZA   - Total nuclear charge
  QA   - Mulliken gross atomic charge
  VA   - Mayer's total valence
  BVA  - Mayer's bonded valence
  FA   - Mayer's free valence

  ATOM       NA         ZA         QA         VA         BVA        FA
  0 C      6.7044     6.0000    -0.7044     3.7735     2.9501     0.8234
  1 H      0.7654     1.0000     0.2346     1.0097     1.0084     0.0013
  2 H      0.7651     1.0000     0.2349     1.0094     1.0080     0.0013
  3 H      0.7651     1.0000     0.2349     1.0093     1.0080     0.0013

  Mayer bond orders larger than 0.100000
B(  0-C ,  1-H ) :   0.9837 B(  0-C ,  2-H ) :   0.9832 B(  0-C ,  3-H ) :   0.9832 


-------
TIMINGS
-------

Total SCF time: 0 days 0 hours 0 min 4 sec 

Total time                  ....       4.490 sec
Sum of individual times     ....       3.786 sec  ( 84.3%)

Fock matrix formation       ....       3.081 sec  ( 68.6%)
  Split-RI-J                ....       0.493 sec  ( 16.0% of F)
  Chain of spheres X        ....       0.793 sec  ( 25.7% of F)
  XC integration            ....       0.562 sec  ( 18.2% of F)
    Basis function eval.    ....       0.025 sec  (  4.4% of XC)
    Density eval.           ....       0.024 sec  (  4.3% of XC)
    XC-Functional eval.     ....       0.026 sec  (  4.7% of XC)
    XC-Potential eval.      ....       0.034 sec  (  6.1% of XC)
Diagonalization             ....       0.083 sec  (  1.9%)
Density matrix formation    ....       0.007 sec  (  0.2%)
Population analysis         ....       0.155 sec  (  3.5%)
Initial guess               ....       0.006 sec  (  0.1%)
Orbital Transformation      ....       0.000 sec  (  0.0%)
Orbital Orthonormalization  ....       0.002 sec  (  0.0%)
DIIS solution               ....       0.117 sec  (  2.6%)
Grid generation             ....       0.336 sec  (  7.5%)

Maximum memory used throughout the entire SCF-calculation: 58.5 MB


-------------------------------------------------------------------------------
                          DFT DISPERSION CORRECTION                            
                                                                               
                              DFTD3 V3.1  Rev 1                                
                              USING zero damping                               
-------------------------------------------------------------------------------
The omegaB97X-D3 functional is recognized. Fit by Chai et al.
Active option DFTDOPT                   ...         3   

molecular C6(AA) [au] = 106.979759 


            DFT-D V3
 parameters
 s6 scaling factor         :     1.0000 
 rs6 scaling factor        :     1.2810 
 s8 scaling factor         :     1.0000 
 rs8 scaling factor        :     1.0940 
 Damping factor alpha6     :    14.0000 
 Damping factor alpha8     :    16.0000 
 ad hoc parameters k1-k3   :    16.0000     1.3333    -4.0000 

 Edisp/kcal,au: -0.008294535080  -0.000013218182 
 E6   /kcal   :  -0.001293012 
 E8   /kcal   :  -0.007001523 
 % E8         :  84.411278153 

-------------------------   ----------------
Dispersion correction           -0.000013218
-------------------------   ----------------


-------------------------   --------------------
FINAL SINGLE POINT ENERGY       -39.830709715227
-------------------------   --------------------

                                *** OPTIMIZATION RUN DONE ***

                            ***************************************
                            *     ORCA property calculations      *
                            ***************************************

                                    ---------------------
                                    Active property flags
                                    ---------------------
   (+) Dipole Moment


------------------------------------------------------------------------------
                       ORCA ELECTRIC PROPERTIES CALCULATION
------------------------------------------------------------------------------

Dipole Moment Calculation                       ... on
Quadrupole Moment Calculation                   ... off
Polarizability Calculation                      ... off
GBWName                                         ... /beegfs/scratch/ispackman/PFAS_EPR_calcs/benchmark/JChemEd_CF3_radical/CH3_radical_111.0_degrees_IN-PROGRESS/CH3_radical_111.0_degrees.gbw
Electron density                                ... /beegfs/scratch/ispackman/PFAS_EPR_calcs/benchmark/JChemEd_CF3_radical/CH3_radical_111.0_degrees_IN-PROGRESS/CH3_radical_111.0_degrees.scfp
The origin for moment calculation is the CENTER OF MASS  = ( 0.000000, -0.000000 -0.123603)

-------------
DIPOLE MOMENT
-------------
                                X             Y             Z
Electronic contribution:      0.00019       0.00000       0.51685
Nuclear contribution   :     -0.00000       0.00000      -0.75166
                        -----------------------------------------
Total Dipole Moment    :      0.00019       0.00000      -0.23481
                        -----------------------------------------
Magnitude (a.u.)       :      0.23481
Magnitude (Debye)      :      0.59684



--------------------
Rotational spectrum 
--------------------
 
Rotational constants in cm-1:     8.916362     8.916358     5.200870 
Rotational constants in MHz : 267305.794642 267305.687010 155918.149171 

 Dipole components along the rotational axes: 
x,y,z [a.u.] :    -0.000007    -0.000186    -0.234810 
x,y,z [Debye]:    -0.000018    -0.000474    -0.596839 

 


           ************************************************************
           *        Program running with 18 parallel MPI-processes    *
           *              working on a common directory               *
           ************************************************************

-------------------------------------------------------------------------------
                               ORCA SCF HESSIAN
-------------------------------------------------------------------------------

                   --------- SHARK INITIALIZATION DONE ---------

Hessian of the Kohn-Sham DFT energy:
Kohn-Sham wavefunction type                      ... UKS
Hartree-Fock exchange scaling                    ...    0.196
Number of operators                              ...    2
Number of atoms                                  ...    4
Basis set dimensions                             ...   64
Integral neglect threshold                       ... 2.5e-11
Integral primitive cutoff                        ... 2.5e-12

Setting up DFT Hessian calculations              ... 

HESS GRID
---------

General Integration Accuracy     IntAcc      ... 4.629
Radial Grid Type                 RadialGrid  ... OptM3 with GC (2021)
Angular Grid (max. ang.)         AngularGrid ... 5 (Lebedev-434)
Angular grid pruning method      GridPruning ... 4 (adaptive)
Weight generation scheme         WeightScheme... Becke
Basis function cutoff            BFCut       ... 1.0000e-11
Integration weight cutoff        WCut        ... 1.0000e-14
Angular grids for H and He will be reduced by one unit
Partially contracted basis set               ... off
Rotationally invariant grid construction     ... off

Total number of grid points                  ...    27249
Total number of batches                      ...      428
Average number of points per batch           ...       63
Average number of grid points per atom       ...     6812

Building densities                               ... done   (      0.0 sec)
Calculating rho(r) on the grid                   ... done   (      0.1 sec)
Building xc-kernel on the grid                   ... done   (      0.1 sec)
                                                     done   (      0.4 sec)

Nuclear repulsion Hessian  (SHARK)               ... done   (      0.0 sec)

----------------------------------------------
Forming right-hand sides of CP-SCF equations     ...
----------------------------------------------
One electron integral derivatives  (SHARK)       ... done   (      0.0 sec)
Transforming the overlap derivative matrices     ... done   (      0.0 sec)
Making the Q(x) pseudodensities                  ... done   (      0.0 sec)
Adding the E*S(x)*S(y) terms to the Hessian      ... done   (      0.0 sec)
Calculating energy weighted overlap derivatives  ... done   (      0.0 sec)
Two electron integral derivatives (SHARK-RI)     ... done   (      0.5 sec)
Exchange-correlation integral derivatives        ... done   (      0.4 sec)
tr(F(y)Q(x)) contribution to the Hessian         ... done   (      0.0 sec)
Response fock operator R(S(x)) (SHARK-RIJCOSX)   ... done   (      0.5 sec)
XC Response fock operator R(S(x))                ... done   (      0.1 sec)
tr(F(y)S(x)) contribution to the Hessian         ... done   (      0.0 sec)
Transforming and finalizing RHSs                 ... done   (      0.0 sec)

----------------------------------------------
Solving the CP-SCF equations (RIJCOSX)           ...
----------------------------------------------
     CP-SCF ITERATION   0:   9.1004e-02 (   0.3 sec   0/ 12 done)
     CP-SCF ITERATION   1:   2.5372e-02 (   0.3 sec   0/ 12 done)
     CP-SCF ITERATION   2:   6.8651e-03 (   0.3 sec   0/ 12 done)
     CP-SCF ITERATION   3:   2.1294e-03 (   0.3 sec   0/ 12 done)
     CP-SCF ITERATION   4:   4.3021e-04 (   0.3 sec   1/ 12 done)
     CP-SCF ITERATION   5:   9.0795e-05 (   0.3 sec  12/ 12 done)
                    *** THE CP-SCF HAS CONVERGED ***

                                                 ... done   (      2.0 sec)
Forming perturbed density Hessian contributions  ... done   (      0.0 sec)
2nd integral derivative contribs (SHARK-RI)      ... done   (      0.7 sec)
Exchange-correlation Hessian                     ... done   (      0.3 sec)
Dispersion correction in the Hessian             ... done   (      0.1 sec)
Dipole derivatives                               ... (center of mass:  0.000000, -0.000000 -0.123603)done   (      0.1 sec)

Total SCF Hessian time: 0 days 0 hours 0 min 5 sec 

Writing the Hessian file to the disk             ... done


Maximum memory used throughout the entire SCFHESS-calculation: 109.6 MB

-----------------------
VIBRATIONAL FREQUENCIES
-----------------------

Scaling factor for frequencies =  1.000000000  (already applied!)

   0:         0.00 cm**-1
   1:         0.00 cm**-1
   2:         0.00 cm**-1
   3:         0.00 cm**-1
   4:         0.00 cm**-1
   5:         0.00 cm**-1
   6:      1098.54 cm**-1
   7:      1419.96 cm**-1
   8:      1421.64 cm**-1
   9:      3085.10 cm**-1
  10:      3207.59 cm**-1
  11:      3207.64 cm**-1


------------
NORMAL MODES
------------

These modes are the Cartesian displacements weighted by the diagonal matrix
M(i,i)=1/sqrt(m[i]) where m[i] is the mass of the displaced atom
Thus, these vectors are normalized but *not* orthogonal

                  0          1          2          3          4          5    
      0       0.000000   0.000000   0.000000   0.000000   0.000000   0.000000
      1       0.000000   0.000000   0.000000   0.000000   0.000000   0.000000
      2       0.000000   0.000000   0.000000   0.000000   0.000000   0.000000
      3       0.000000   0.000000   0.000000   0.000000   0.000000   0.000000
      4       0.000000   0.000000   0.000000   0.000000   0.000000   0.000000
      5       0.000000   0.000000   0.000000   0.000000   0.000000   0.000000
      6       0.000000   0.000000   0.000000   0.000000   0.000000   0.000000
      7       0.000000   0.000000   0.000000   0.000000   0.000000   0.000000
      8       0.000000   0.000000   0.000000   0.000000   0.000000   0.000000
      9       0.000000   0.000000   0.000000   0.000000   0.000000   0.000000
     10       0.000000   0.000000   0.000000   0.000000   0.000000   0.000000
     11       0.000000   0.000000   0.000000   0.000000   0.000000   0.000000
                  6          7          8          9         10         11    
      0      -0.000616   0.082454  -0.000000   0.000131   0.094517   0.000158
      1       0.000000  -0.000000  -0.082487  -0.000000  -0.000158   0.094490
      2       0.137072   0.000884   0.000000   0.036141  -0.000029  -0.000000
      3      -0.175857   0.119983  -0.000001   0.557999  -0.776146  -0.001300
      4      -0.000001   0.000002   0.776339   0.000000  -0.000042   0.024861
      5      -0.546012   0.207990  -0.000001  -0.143210   0.242560   0.000406
      6       0.091596  -0.551241   0.388597  -0.279782  -0.175626   0.346259
      7      -0.148794  -0.389829   0.103273   0.484231   0.346805  -0.574805
      8      -0.543644  -0.109264  -0.183237  -0.143716  -0.121457   0.209698
      9       0.091596  -0.551243  -0.388593  -0.279781  -0.174464  -0.346846
     10       0.148793   0.389829   0.103271  -0.484229  -0.344877  -0.575965
     11      -0.543644  -0.109262   0.183237  -0.143715  -0.120753  -0.210104


-----------
IR SPECTRUM
-----------

 Mode   freq       eps      Int      T**2         TX        TY        TZ
       cm**-1   L/(mol*cm) km/mol    a.u.
----------------------------------------------------------------------------
  6:   1098.54   0.004742   23.97  0.001347  ( 0.000089 -0.000000 -0.036704)
  7:   1419.96   0.000610    3.08  0.000134  (-0.011570  0.000000 -0.000339)
  8:   1421.64   0.000613    3.10  0.000135  ( 0.000000  0.011600 -0.000000)
  9:   3085.10   0.000015    0.07  0.000001  ( 0.000009 -0.000000  0.001214)
 10:   3207.59   0.003587   18.13  0.000349  ( 0.018681 -0.000032 -0.000024)
 11:   3207.64   0.003634   18.37  0.000354  ( 0.000031  0.018804 -0.000000)

* The epsilon (eps) is given for a Dirac delta lineshape.
** The dipole moment derivative (T) already includes vibrational overlap.

The first frequency considered to be a vibration is 6
The total number of vibrations considered is 6


--------------------------
THERMOCHEMISTRY AT 298.15K
--------------------------

Temperature         ... 298.15 K
Pressure            ... 1.00 atm
Total Mass          ... 15.03 AMU

Throughout the following assumptions are being made:
  (1) The electronic state is orbitally nondegenerate
      but the spin degeneracy is treated
  (2) There are no thermally accessible electronically excited states
  (3) Hindered rotations indicated by low frequency modes are not
      treated as such but are treated as vibrations and this may
      cause some error
  (4) All equations used are the standard statistical mechanics
      equations for an ideal gas
  (5) All vibrations are strictly harmonic

freq.    1098.54  E(vib)   ...       0.02 
freq.    1419.96  E(vib)   ...       0.00 
freq.    1421.64  E(vib)   ...       0.00 
freq.    3085.10  E(vib)   ...       0.00 
freq.    3207.59  E(vib)   ...       0.00 
freq.    3207.64  E(vib)   ...       0.00 

------------
INNER ENERGY
------------

The inner energy is: U= E(el) + E(ZPE) + E(vib) + E(rot) + E(trans)
    E(el)   - is the total energy from the electronic structure calculation
              = E(kin-el) + E(nuc-el) + E(el-el) + E(nuc-nuc)
    E(ZPE)  - the the zero temperature vibrational energy from the frequency calculation
    E(vib)  - the the finite temperature correction to E(ZPE) due to population
              of excited vibrational states
    E(rot)  - is the rotational thermal energy
    E(trans)- is the translational thermal energy

Summary of contributions to the inner energy U:
Electronic energy                ...    -39.83070972 Eh
Zero point energy                ...      0.03061968 Eh      19.21 kcal/mol
Thermal vibrational correction   ...      0.00003874 Eh       0.02 kcal/mol
Thermal rotational correction    ...      0.00141627 Eh       0.89 kcal/mol
Thermal translational correction ...      0.00141627 Eh       0.89 kcal/mol
-----------------------------------------------------------------------
Total thermal energy                    -39.79721876 Eh


Summary of corrections to the electronic energy:
(perhaps to be used in another calculation)
Total thermal correction                  0.00287128 Eh       1.80 kcal/mol
Non-thermal (ZPE) correction              0.03061968 Eh      19.21 kcal/mol
-----------------------------------------------------------------------
Total correction                          0.03349096 Eh      21.02 kcal/mol


--------
ENTHALPY
--------

The enthalpy is H = U + kB*T
                kB is Boltzmann's constant
Total free energy                 ...    -39.79721876 Eh 
Thermal Enthalpy correction       ...      0.00094421 Eh       0.59 kcal/mol
-----------------------------------------------------------------------
Total Enthalpy                    ...    -39.79627455 Eh


Note: Rotational entropy computed according to Herzberg 
Infrared and Raman Spectra, Chapter V,1, Van Nostrand Reinhold, 1945 
Point Group:  C3v, Symmetry Number:   3  
Rotational constants in cm-1:     8.916362     8.916358     5.200870 

Vibrational entropy computed according to the QRRHO of S. Grimme
Chem.Eur.J. 2012 18 9955


-------
ENTROPY
-------

The entropy contributions are T*S = T*(S(el)+S(vib)+S(rot)+S(trans))
     S(el)   - electronic entropy
     S(vib)  - vibrational entropy
     S(rot)  - rotational entropy
     S(trans)- translational entropy
The entropies will be listed as multiplied by the temperature to get
units of energy

Electronic entropy                ...      0.00065446 Eh      0.41 kcal/mol
Vibrational entropy               ...      0.00004547 Eh      0.03 kcal/mol
Rotational entropy                ...      0.00562936 Eh      3.53 kcal/mol
Translational entropy             ...      0.01618771 Eh     10.16 kcal/mol
-----------------------------------------------------------------------
Final entropy term                ...      0.02251699 Eh     14.13 kcal/mol

In case the symmetry of your molecule has not been determined correctly
or in case you have a reason to use a different symmetry number we print 
out the resulting rotational entropy values for sn=1,12 :
 --------------------------------------------------------
|  sn= 1 | S(rot)=       0.00666665 Eh      4.18 kcal/mol|
|  sn= 2 | S(rot)=       0.00601220 Eh      3.77 kcal/mol|
|  sn= 3 | S(rot)=       0.00562936 Eh      3.53 kcal/mol|
|  sn= 4 | S(rot)=       0.00535774 Eh      3.36 kcal/mol|
|  sn= 5 | S(rot)=       0.00514705 Eh      3.23 kcal/mol|
|  sn= 6 | S(rot)=       0.00497491 Eh      3.12 kcal/mol|
|  sn= 7 | S(rot)=       0.00482936 Eh      3.03 kcal/mol|
|  sn= 8 | S(rot)=       0.00470328 Eh      2.95 kcal/mol|
|  sn= 9 | S(rot)=       0.00459208 Eh      2.88 kcal/mol|
|  sn=10 | S(rot)=       0.00449260 Eh      2.82 kcal/mol|
|  sn=11 | S(rot)=       0.00440261 Eh      2.76 kcal/mol|
|  sn=12 | S(rot)=       0.00432045 Eh      2.71 kcal/mol|
 --------------------------------------------------------


-------------------
GIBBS FREE ENERGY
-------------------

The Gibbs free energy is G = H - T*S

Total enthalpy                    ...    -39.79627455 Eh 
Total entropy correction          ...     -0.02251699 Eh    -14.13 kcal/mol
-----------------------------------------------------------------------
Final Gibbs free energy         ...    -39.81879154 Eh

For completeness - the Gibbs free energy minus the electronic energy
G-E(el)                           ...      0.01191818 Eh      7.48 kcal/mol


Timings for individual modules:

Sum of individual times         ...       47.920 sec (=   0.799 min)
GTO integral calculation        ...        8.148 sec (=   0.136 min)  17.0 %
SCF iterations                  ...       25.144 sec (=   0.419 min)  52.5 %
SCF Gradient evaluation         ...        6.113 sec (=   0.102 min)  12.8 %
Geometry relaxation             ...        0.132 sec (=   0.002 min)   0.3 %
Analytical frequency calculation...        8.383 sec (=   0.140 min)  17.5 %
                             ****ORCA TERMINATED NORMALLY****
TOTAL RUN TIME: 0 days 0 hours 0 minutes 55 seconds 167 msec

slurmID:    32260113
totalRuntime[s]:    55.208027601
