
                                 *****************
                                 * O   R   C   A *
                                 *****************

                                            #,                                       
                                            ###                                      
                                            ####                                     
                                            #####                                    
                                            ######                                   
                                           ########,                                 
                                     ,,################,,,,,                         
                               ,,#################################,,                 
                          ,,##########################################,,             
                       ,#########################################, ''#####,          
                    ,#############################################,,   '####,        
                  ,##################################################,,,,####,       
                ,###########''''           ''''###############################       
              ,#####''   ,,,,##########,,,,          '''####'''          '####       
            ,##' ,,,,###########################,,,                        '##       
           ' ,,###''''                  '''############,,,                           
         ,,##''                                '''############,,,,        ,,,,,,###''
      ,#''                                            '''#######################'''  
     '                                                          ''''####''''         
             ,#######,   #######,   ,#######,      ##                                
            ,#'     '#,  ##    ##  ,#'     '#,    #''#        ######   ,####,        
            ##       ##  ##   ,#'  ##            #'  '#       #        #'  '#        
            ##       ##  #######   ##           ,######,      #####,   #    #        
            '#,     ,#'  ##    ##  '#,     ,#' ,#      #,         ##   #,  ,#        
             '#######'   ##     ##  '#######'  #'      '#     #####' # '####'        



                  #######################################################
                  #                        -***-                        #
                  #          Department of theory and spectroscopy      #
                  #    Directorship and core code : Frank Neese         #
                  #        Max Planck Institute fuer Kohlenforschung    #
                  #                Kaiser Wilhelm Platz 1               #
                  #                 D-45470 Muelheim/Ruhr               #
                  #                      Germany                        #
                  #                                                     #
                  #                  All rights reserved                #
                  #                        -***-                        #
                  #######################################################


                         Program Version 5.0.4 -  RELEASE  -


 With contributions from (in alphabetic order):
   Daniel Aravena         : Magnetic Suceptibility
   Michael Atanasov       : Ab Initio Ligand Field Theory (pilot matlab implementation)
   Alexander A. Auer      : GIAO ZORA, VPT2 properties, NMR spectrum
   Ute Becker             : Parallelization
   Giovanni Bistoni       : ED, misc. LED, open-shell LED, HFLD
   Martin Brehm           : Molecular dynamics
   Dmytro Bykov           : SCF Hessian
   Vijay G. Chilkuri      : MRCI spin determinant printing, contributions to CSF-ICE
   Dipayan Datta          : RHF DLPNO-CCSD density
   Achintya Kumar Dutta   : EOM-CC, STEOM-CC
   Dmitry Ganyushin       : Spin-Orbit,Spin-Spin,Magnetic field MRCI
   Miquel Garcia          : C-PCM and meta-GGA Hessian, CC/C-PCM, Gaussian charge scheme
   Yang Guo               : DLPNO-NEVPT2, F12-NEVPT2, CIM, IAO-localization
   Andreas Hansen         : Spin unrestricted coupled pair/coupled cluster methods
   Benjamin Helmich-Paris : MC-RPA, TRAH-SCF, COSX integrals
   Lee Huntington         : MR-EOM, pCC
   Robert Izsak           : Overlap fitted RIJCOSX, COSX-SCS-MP3, EOM
   Marcus Kettner         : VPT2
   Christian Kollmar      : KDIIS, OOCD, Brueckner-CCSD(T), CCSD density, CASPT2, CASPT2-K
   Simone Kossmann        : Meta GGA functionals, TD-DFT gradient, OOMP2, MP2 Hessian
   Martin Krupicka        : Initial AUTO-CI
   Lucas Lang             : DCDCAS
   Marvin Lechner         : AUTO-CI (C++ implementation), FIC-MRCC
   Dagmar Lenk            : GEPOL surface, SMD
   Dimitrios Liakos       : Extrapolation schemes; Compound Job, initial MDCI parallelization
   Dimitrios Manganas     : Further ROCIS development; embedding schemes
   Dimitrios Pantazis     : SARC Basis sets
   Anastasios Papadopoulos: AUTO-CI, single reference methods and gradients
   Taras Petrenko         : DFT Hessian,TD-DFT gradient, ASA, ECA, R-Raman, ABS, FL, XAS/XES, NRVS
   Peter Pinski           : DLPNO-MP2, DLPNO-MP2 Gradient
   Christoph Reimann      : Effective Core Potentials
   Marius Retegan         : Local ZFS, SOC
   Christoph Riplinger    : Optimizer, TS searches, QM/MM, DLPNO-CCSD(T), (RO)-DLPNO pert. Triples
   Tobias Risthaus        : Range-separated hybrids, TD-DFT gradient, RPA, STAB
   Michael Roemelt        : Original ROCIS implementation
   Masaaki Saitow         : Open-shell DLPNO-CCSD energy and density
   Barbara Sandhoefer     : DKH picture change effects
   Avijit Sen             : IP-ROCIS
   Kantharuban Sivalingam : CASSCF convergence, NEVPT2, FIC-MRCI
   Bernardo de Souza      : ESD, SOC TD-DFT
   Georgi Stoychev        : AutoAux, RI-MP2 NMR, DLPNO-MP2 response
   Willem Van den Heuvel  : Paramagnetic NMR
   Boris Wezisla          : Elementary symmetry handling
   Frank Wennmohs         : Technical directorship


 We gratefully acknowledge several colleagues who have allowed us to
 interface, adapt or use parts of their codes:
   Stefan Grimme, W. Hujo, H. Kruse, P. Pracht,  : VdW corrections, initial TS optimization,
                  C. Bannwarth, S. Ehlert          DFT functionals, gCP, sTDA/sTD-DF
   Ed Valeev, F. Pavosevic, A. Kumar             : LibInt (2-el integral package), F12 methods
   Garnet Chan, S. Sharma, J. Yang, R. Olivares  : DMRG
   Ulf Ekstrom                                   : XCFun DFT Library
   Mihaly Kallay                                 : mrcc  (arbitrary order and MRCC methods)
   Jiri Pittner, Ondrej Demel                    : Mk-CCSD
   Frank Weinhold                                : gennbo (NPA and NBO analysis)
   Christopher J. Cramer and Donald G. Truhlar   : smd solvation model
   Lars Goerigk                                  : TD-DFT with DH, B97 family of functionals
   V. Asgeirsson, H. Jonsson                     : NEB implementation
   FAccTs GmbH                                   : IRC, NEB, NEB-TS, DLPNO-Multilevel, CI-OPT
                                                   MM, QMMM, 2- and 3-layer-ONIOM, Crystal-QMMM,
                                                   LR-CPCM, SF, NACMEs, symmetry and pop. for TD-DFT,
                                                   nearIR, NL-DFT gradient (VV10), updates on ESD,
                                                   ML-optimized integration grids
   S Lehtola, MJT Oliveira, MAL Marques          : LibXC Library
   Liviu Ungur et al                             : ANISO software


 Your calculation uses the libint2 library for the computation of 2-el integrals
 For citations please refer to: http://libint.valeyev.net

 Your ORCA version has been built with support for libXC version: 5.1.0
 For citations please refer to: https://tddft.org/programs/libxc/

 This ORCA versions uses:
   CBLAS   interface :  Fast vector & matrix operations
   LAPACKE interface :  Fast linear algebra routines
   SCALAPACK package :  Parallel linear algebra routines
   Shared memory     :  Shared parallel matrices
   BLAS/LAPACK       :  OpenBLAS 0.3.15  USE64BITINT DYNAMIC_ARCH NO_AFFINITY SkylakeX SINGLE_THREADED
        Core in use  :  SkylakeX
   Copyright (c) 2011-2014, The OpenBLAS Project


Your calculation utilizes the atom-pairwise dispersion correction
with the zero-damping scheme (D30)
Cite in your paper:
S.Grimme, J.Antony, S.Ehrlich and H.Krieg, J.Chem.Phys., 132, (2010), 154104 
   

XCFun DFT library Copyright 2009-2010 Ulf Ekstrom and contributors.
See http://admol.org/xcfun for more information.
This is free software; see the source code for copying conditions.
There is ABSOLUTELY NO WARRANTY; not even for MERCHANTABILITY or FITNESS FOR A PARTICULAR PURPOSE.
For details see the documentation.
Scientific users of this library should cite U. Ekstrom, L. Visscher, R. Bast, A. J. Thorvaldsen and K. Ruud;
J.Chem.Theor.Comp. 2010, DOI: 10.1021/ct100117s
XCFun Version 0.99 

================================================================================

----- Orbital basis set information -----
Your calculation utilizes the basis: def2-TZVPD
   F. Weigend and R. Ahlrichs, Phys. Chem. Chem. Phys. 7, 3297 (2005).
   D. Rappoport and F. Furche, J. Chem. Phys. 133 134105 (2010).

----- AuxJ basis set information -----
Your calculation utilizes the auxiliary basis: def2/J
   F. Weigend, Phys. Chem. Chem. Phys. 8, 1057 (2006).

================================================================================
                                        WARNINGS
                       Please study these warnings very carefully!
================================================================================


WARNING: Geometry Optimization
  ===> : Switching off AutoStart
         For restart on a previous wavefunction, please use MOREAD

INFO   : the flag for use of the SHARK integral package has been found!

================================================================================
                                       INPUT FILE
================================================================================
NAME = /beegfs/scratch/ispackman/PFAS_EPR_calcs/benchmark/JChemEd_CF3_radical/CH3_radical_97.5_degrees_IN-PROGRESS/CH3_radical_97.5_degrees.inp
|  1> ! UKS TightSCF wB97x-D3 def2-TZVPD xyzfile opt freq
|  2> 
|  3> # CH3 radical 97.5 degrees fixed
|  4> 
|  5> %maxcore 1000
|  6> %pal
|  7> nprocs 18
|  8> end
|  9> 
| 10> %geom Constraints
| 11>         { A * 0 * C }
| 12>     end
| 13> end
| 14> * xyz 0 2
| 15> C 0.00 0.00 0.00
| 16> H 0.9376018169 0.0000000000 -0.5360063740
| 17> H -0.4688009085 0.8119869921 -0.5360063740
| 18> H -0.4688009085 -0.8119869921 -0.5360063740
| 19> **                         ****END OF INPUT****
================================================================================

                       *****************************
                       * Geometry Optimization Run *
                       *****************************

Geometry optimization settings:
Update method            Update   .... BFGS
Choice of coordinates    CoordSys .... Z-matrix Internals
Initial Hessian          InHess   .... Almoef's Model

Convergence Tolerances:
Energy Change            TolE     ....  5.0000e-06 Eh
Max. Gradient            TolMAXG  ....  3.0000e-04 Eh/bohr
RMS Gradient             TolRMSG  ....  1.0000e-04 Eh/bohr
Max. Displacement        TolMAXD  ....  4.0000e-03 bohr
RMS Displacement         TolRMSD  ....  2.0000e-03 bohr
Strict Convergence                ....  False
------------------------------------------------------------------------------
                        ORCA OPTIMIZATION COORDINATE SETUP
------------------------------------------------------------------------------

The optimization will be done in new redundant internal coordinates
Making redundant internal coordinates   ...  (new redundants) done
Evaluating the initial hessian          ...  (Almloef) done
Evaluating the coordinates              ...  done
Calculating the B-matrix                .... done
Calculating the G-matrix                .... done
Diagonalizing the G-matrix              .... done
Imposing constraints:
 Iter   0:  RMS(Cart)=    0.0000000000 RMS(Int)=    0.0000000000
CONVERGED
Will constrain atom 0 coordinate 1 
Will constrain atom 0 coordinate 2 
Will constrain atom 1 coordinate 2 
The first mode is                       ....    1
The number of degrees of freedom        ....    6
Storing new coordinates                 .... done

    -----------------------------------------------------------------
                    Redundant Internal Coordinates


    -----------------------------------------------------------------
         Definition                    Initial Value    Approx d2E/dq
    -----------------------------------------------------------------
      1. B(H   1,C   0)                  1.0800         0.373575   
      2. B(H   2,C   0)                  1.0800         0.373575   
      3. B(H   3,C   0)                  1.0800         0.373575   
      4. A(H   2,C   0,H   3)           97.5000         0.294224 C 
      5. A(H   1,C   0,H   2)           97.5000         0.294224 C 
      6. A(H   1,C   0,H   3)           97.5000         0.294224 C 
      7. I(H   1,H   3,H   2,C   0)     78.5821         0.002532   
    -----------------------------------------------------------------

Number of atoms                         .... 4
Number of degrees of freedom            .... 7

         *************************************************************
         *                GEOMETRY OPTIMIZATION CYCLE   1            *
         *************************************************************
---------------------------------
CARTESIAN COORDINATES (ANGSTROEM)
---------------------------------
  C      0.000000    0.000000    0.000000
  H      0.937602    0.000000   -0.536006
  H     -0.468801    0.811987   -0.536006
  H     -0.468801   -0.811987   -0.536006

----------------------------
CARTESIAN COORDINATES (A.U.)
----------------------------
  NO LB      ZA    FRAG     MASS         X           Y           Z
   0 C     6.0000    0    12.011    0.000000    0.000000    0.000000
   1 H     1.0000    0     1.008    1.771811    0.000000   -1.012905
   2 H     1.0000    0     1.008   -0.885905    1.534433   -1.012905
   3 H     1.0000    0     1.008   -0.885905   -1.534433   -1.012905

--------------------------------
INTERNAL COORDINATES (ANGSTROEM)
--------------------------------
 C      0   0   0     0.000000000000     0.00000000     0.00000000
 H      1   0   0     1.080000000011     0.00000000     0.00000000
 H      1   2   0     1.080000000055    97.50000000     0.00000000
 H      1   2   3     1.080000000055    97.50000000    98.63393306

---------------------------
INTERNAL COORDINATES (A.U.)
---------------------------
 C      0   0   0     0.000000000000     0.00000000     0.00000000
 H      1   0   0     2.040904224655     0.00000000     0.00000000
 H      1   2   0     2.040904224739    97.50000000     0.00000000
 H      1   2   3     2.040904224739    97.50000000    98.63393306

---------------------
BASIS SET INFORMATION
---------------------
There are 2 groups of distinct atoms

 Group   1 Type C   : 12s6p3d1f contracted to 6s3p3d1f pattern {621111/411/111/1}
 Group   2 Type H   : 5s2p contracted to 3s2p pattern {311/11}

Atom   0C    basis set group =>   1
Atom   1H    basis set group =>   2
Atom   2H    basis set group =>   2
Atom   3H    basis set group =>   2
---------------------------------
AUXILIARY/J BASIS SET INFORMATION
---------------------------------
There are 2 groups of distinct atoms

 Group   1 Type C   : 12s5p4d2f1g contracted to 6s4p3d1f1g pattern {711111/2111/211/2/1}
 Group   2 Type H   : 5s2p1d contracted to 3s1p1d pattern {311/2/1}

Atom   0C    basis set group =>   1
Atom   1H    basis set group =>   2
Atom   2H    basis set group =>   2
Atom   3H    basis set group =>   2


           ************************************************************
           *        Program running with 18 parallel MPI-processes    *
           *              working on a common directory               *
           ************************************************************
------------------------------------------------------------------------------
                           ORCA GTO INTEGRAL CALCULATION
                           -- RI-GTO INTEGRALS CHOSEN --
------------------------------------------------------------------------------
------------------------------------------------------------------------------
                   ___                                                        
                  /   \      - P O W E R E D   B Y -                         
                 /     \                                                     
                 |  |  |   _    _      __       _____    __    __             
                 |  |  |  | |  | |    /  \     |  _  \  |  |  /  |          
                  \  \/   | |  | |   /    \    | | | |  |  | /  /          
                 / \  \   | |__| |  /  /\  \   | |_| |  |  |/  /          
                |  |  |   |  __  | /  /__\  \  |    /   |      \           
                |  |  |   | |  | | |   __   |  |    \   |  |\   \          
                \     /   | |  | | |  |  |  |  | |\  \  |  | \   \       
                 \___/    |_|  |_| |__|  |__|  |_| \__\ |__|  \__/        
                                                                              
                      - O R C A' S   B I G   F R I E N D -                    
                                      &                                       
                       - I N T E G R A L  F E E D E R -                       
                                                                              
 v1 FN, 2020, v2 2021                                                         
------------------------------------------------------------------------------


Reading SHARK input file /beegfs/scratch/ispackman/PFAS_EPR_calcs/benchmark/JChemEd_CF3_radical/CH3_radical_97.5_degrees_IN-PROGRESS/CH3_radical_97.5_degrees.SHARKINP.tmp ... ok
----------------------
SHARK INTEGRAL PACKAGE
----------------------

Number of atoms                             ...      4
Number of basis functions                   ...     64
Number of shells                            ...     28
Maximum angular momentum                    ...      3
Integral batch strategy                     ... SHARK/LIBINT Hybrid
RI-J (if used) integral strategy            ... SPLIT-RIJ (Revised 2003 algorithm where possible)
Printlevel                                  ...      1
Contraction scheme used                     ... SEGMENTED contraction
Coulomb Range Separation                    ... NOT USED
Exchange Range Separation                   ... Long Range
   Mu parameter                             ...  0.250000
   Scaling (regular/separated)              ...  0.195728  0.804272
Finite Nucleus Model                        ... NOT USED
Auxiliary Coulomb fitting basis             ... AVAILABLE
   # of basis functions in Aux-J            ...     82
   # of shells in Aux-J                     ...     30
   Maximum angular momentum in Aux-J        ...      4
Auxiliary J/K fitting basis                 ... NOT available
Auxiliary Correlation fitting basis         ... NOT available
Auxiliary 'external' fitting basis          ... NOT available
Integral threshold                          ...     2.500000e-11
Primitive cut-off                           ...     2.500000e-12
Primitive pair pre-selection threshold      ...     2.500000e-12

Calculating pre-screening integrals         ... done (  0.0 sec) Dimension = 28
Organizing shell pair data                  ... done (  0.0 sec)
Shell pair information
Total number of shell pairs                 ...       406
Shell pairs after pre-screening             ...       406
Total number of primitive shell pairs       ...       977
Primitive shell pairs kept                  ...       947
          la=0 lb=0:    120 shell pairs
          la=1 lb=0:    135 shell pairs
          la=1 lb=1:     45 shell pairs
          la=2 lb=0:     45 shell pairs
          la=2 lb=1:     27 shell pairs
          la=2 lb=2:      6 shell pairs
          la=3 lb=0:     15 shell pairs
          la=3 lb=1:      9 shell pairs
          la=3 lb=2:      3 shell pairs
          la=3 lb=3:      1 shell pairs

Calculating one electron integrals          ... done (  0.0 sec)
Calculating RI/J V-Matrix + Cholesky decomp.... done (  0.1 sec)
Calculating Nuclear repulsion               ... done (  0.0 sec) ENN=      9.797179902107 Eh

SHARK setup successfully completed in   0.3 seconds

Maximum memory used throughout the entire GTOINT-calculation: 14.0 MB


           ************************************************************
           *        Program running with 18 parallel MPI-processes    *
           *              working on a common directory               *
           ************************************************************
-------------------------------------------------------------------------------
                                 ORCA SCF
-------------------------------------------------------------------------------

------------
SCF SETTINGS
------------
Hamiltonian:
 Density Functional     Method          .... DFT(GTOs)
 Exchange Functional    Exchange        .... WB97X-D3
 Correlation Functional Correlation     .... WB97X-D3
 Gradients option       PostSCFGGA      .... off
 Hybrid DFT is turned on
   Fraction HF Exchange ScalHFX         ....  0.195728
   Scaling of DF-GGA-X  ScalDFX         ....  0.000000
   Scaling of DF-GGA-C  ScalDFC         ....  1.000000
   Scaling of DF-LDA-C  ScalLDAC        ....  1.000000
   Perturbative correction              ....  0.000000
   Density functional embedding theory  .... OFF
 Long-range corrected/Screened/Range-Separated Hybrid DFT is turned on
   Amount of maximum screened exact exchange              ....  0.804272
   Range separation parameter mu (erf(mu*r12)/r12)        ....  0.250000
 RI-approximation to the Coulomb term is turned on
   Number of AuxJ basis functions       .... 82
   RIJ-COSX (HFX calculated with COS-X)).... on


General Settings:
 Integral files         IntName         .... /beegfs/scratch/ispackman/PFAS_EPR_calcs/benchmark/JChemEd_CF3_radical/CH3_radical_97.5_degrees_IN-PROGRESS/CH3_radical_97.5_degrees
 Hartree-Fock type      HFTyp           .... UHF
 Total Charge           Charge          ....    0
 Multiplicity           Mult            ....    2
 Number of Electrons    NEL             ....    9
 Basis Dimension        Dim             ....   64
 Nuclear Repulsion      ENuc            ....      9.7971799021 Eh

Convergence Acceleration:
 DIIS                   CNVDIIS         .... on
   Start iteration      DIISMaxIt       ....    12
   Startup error        DIISStart       ....  0.200000
   # of expansion vecs  DIISMaxEq       ....     5
   Bias factor          DIISBfac        ....   1.050
   Max. coefficient     DIISMaxC        ....  10.000
 Trust-Rad. Augm. Hess. CNVTRAH         .... auto
   Auto Start mean grad. ratio tolernc. ....  1.125000
   Auto Start start iteration           ....    20
   Auto Start num. interpolation iter.  ....    10
   Max. Number of Micro iterations      ....    16
   Max. Number of Macro iterations      .... Maxiter - #DIIS iter
   Number of Davidson start vectors     ....     2
   Converg. threshold I  (grad. norm)   ....   1.000e-05
   Converg. threshold II (energy diff.) ....   1.000e-08
   Grad. Scal. Fac. for Micro threshold ....   0.100
   Minimum threshold for Micro iter.    ....   0.010
   NR start threshold (gradient norm)   ....   0.001
   Initial trust radius                 ....   0.400
   Minimum AH scaling param. (alpha)    ....   1.000
   Maximum AH scaling param. (alpha)    .... 1000.000
   Orbital update algorithm             .... Taylor
   White noise on init. David. guess    .... on
   Maximum white noise                  ....   0.010
   Quad. conv. algorithm                .... NR
 SOSCF                  CNVSOSCF        .... off
 Level Shifting         CNVShift        .... on
   Level shift para.    LevelShift      ....    0.2500
   Turn off err/grad.   ShiftErr        ....    0.0010
 Zerner damping         CNVZerner       .... off
 Static damping         CNVDamp         .... on
   Fraction old density DampFac         ....    0.7000
   Max. Damping (<1)    DampMax         ....    0.9800
   Min. Damping (>=0)   DampMin         ....    0.0000
   Turn off err/grad.   DampErr         ....    0.1000
 Fernandez-Rico         CNVRico         .... off

SCF Procedure:
 Maximum # iterations   MaxIter         ....   125
 SCF integral mode      SCFMode         .... Direct
   Integral package                     .... SHARK and LIBINT hybrid scheme
 Reset frequency        DirectResetFreq ....    20
 Integral Threshold     Thresh          ....  2.500e-11 Eh
 Primitive CutOff       TCut            ....  2.500e-12 Eh

Convergence Tolerance:
 Convergence Check Mode ConvCheckMode   .... Total+1el-Energy
 Convergence forced     ConvForced      .... 0
 Energy Change          TolE            ....  1.000e-08 Eh
 1-El. energy change                    ....  1.000e-05 Eh
 DIIS Error             TolErr          ....  5.000e-07


Diagonalization of the overlap matrix:
Smallest eigenvalue                        ... 3.632e-05
Time for diagonalization                   ...    0.002 sec
Threshold for overlap eigenvalues          ... 1.000e-08
Number of eigenvalues below threshold      ... 0
Time for construction of square roots      ...    0.011 sec
Total time needed                          ...    0.014 sec

Time for model grid setup =    0.042 sec

------------------------------
INITIAL GUESS: MODEL POTENTIAL
------------------------------
Loading Hartree-Fock densities                     ... done
Calculating cut-offs                               ... done
Initializing the effective Hamiltonian             ... done
Setting up the integral package (SHARK)            ... done
Starting the Coulomb interaction                   ... done (   0.1 sec)
Reading the grid                                   ... done
Mapping shells                                     ... done
Starting the XC term evaluation                    ... done (   0.0 sec)
  promolecular density results
     # of electrons  =      8.997949978
     EX              =     -5.937832509
     EC              =     -0.260647486
     EX+EC           =     -6.198479995
Transforming the Hamiltonian                       ... done (   0.0 sec)
Diagonalizing the Hamiltonian                      ... done (   0.0 sec)
Back transforming the eigenvectors                 ... done (   0.0 sec)
Now organizing SCF variables                       ... done
                      ------------------
                      INITIAL GUESS DONE (   0.1 sec)
                      ------------------
-------------------
DFT GRID GENERATION
-------------------

General Integration Accuracy     IntAcc      ... 4.388
Radial Grid Type                 RadialGrid  ... OptM3 with GC (2021)
Angular Grid (max. ang.)         AngularGrid ... 4 (Lebedev-302)
Angular grid pruning method      GridPruning ... 4 (adaptive)
Weight generation scheme         WeightScheme... Becke
Basis function cutoff            BFCut       ... 1.0000e-11
Integration weight cutoff        WCut        ... 1.0000e-14
Angular grids for H and He will be reduced by one unit
Partially contracted basis set               ... off
Rotationally invariant grid construction     ... off

Total number of grid points                  ...    17036
Total number of batches                      ...      269
Average number of points per batch           ...       63
Average number of grid points per atom       ...     4259
Time for grid setup =    0.088 sec

--------------------
COSX GRID GENERATION
--------------------

GRIDX 1
-------
General Integration Accuracy     IntAcc      ... 3.816
Radial Grid Type                 RadialGrid  ... OptM3 with GC (2021)
Angular Grid (max. ang.)         AngularGrid ... 1 (Lebedev-50)
Angular grid pruning method      GridPruning ... 4 (adaptive)
Weight generation scheme         WeightScheme... Becke
Basis function cutoff            BFCut       ... 1.0000e-11
Integration weight cutoff        WCut        ... 1.0000e-14
Angular grids for H and He will be reduced by one unit
Partially contracted basis set               ... on
Rotationally invariant grid construction     ... off

Total number of grid points                  ...     2144
Total number of batches                      ...       36
Average number of points per batch           ...       59
Average number of grid points per atom       ...      536
UseSFitting                                  ... on

GRIDX 2
-------
General Integration Accuracy     IntAcc      ... 4.020
Radial Grid Type                 RadialGrid  ... OptM3 with GC (2021)
Angular Grid (max. ang.)         AngularGrid ... 2 (Lebedev-110)
Angular grid pruning method      GridPruning ... 4 (adaptive)
Weight generation scheme         WeightScheme... Becke
Basis function cutoff            BFCut       ... 1.0000e-11
Integration weight cutoff        WCut        ... 1.0000e-14
Angular grids for H and He will be reduced by one unit
Partially contracted basis set               ... on
Rotationally invariant grid construction     ... off

Total number of grid points                  ...     5056
Total number of batches                      ...       82
Average number of points per batch           ...       61
Average number of grid points per atom       ...     1264
UseSFitting                                  ... on

GRIDX 3
-------
General Integration Accuracy     IntAcc      ... 4.338
Radial Grid Type                 RadialGrid  ... OptM3 with GC (2021)
Angular Grid (max. ang.)         AngularGrid ... 3 (Lebedev-194)
Angular grid pruning method      GridPruning ... 4 (adaptive)
Weight generation scheme         WeightScheme... Becke
Basis function cutoff            BFCut       ... 1.0000e-11
Integration weight cutoff        WCut        ... 1.0000e-14
Angular grids for H and He will be reduced by one unit
Partially contracted basis set               ... on
Rotationally invariant grid construction     ... off

Total number of grid points                  ...    11714
Total number of batches                      ...      185
Average number of points per batch           ...       63
Average number of grid points per atom       ...     2928
UseSFitting                                  ... on

Time for X-Grid setup             =    0.219 sec

--------------
SCF ITERATIONS
--------------
ITER       Energy         Delta-E        Max-DP      RMS-DP      [F,P]     Damp
               ***  Starting incremental Fock matrix formation  ***
  0    -39.7643213542   0.000000000000 0.07032672  0.00130379  0.0753720 0.7000
  1    -39.7780534595  -0.013732105330 0.06343784  0.00113585  0.0485081 0.7000
                               ***Turning on DIIS***
  2    -39.7858810506  -0.007827591120 0.13167771  0.00243573  0.0281533 0.0000
  3    -39.7996132814  -0.013732230813 0.04701379  0.00084021  0.0191352 0.0000
  4    -39.8011154580  -0.001502176549 0.01487461  0.00025266  0.0032352 0.0000
  5    -39.8011825704  -0.000067112447 0.01332968  0.00021646  0.0016698 0.0000
  6    -39.8012058077  -0.000023237234 0.01430207  0.00022299  0.0006317 0.0000
               *** Restarting incremental Fock matrix formation ***
                                   *** Resetting DIIS ***
  7    -39.8012124745  -0.000006666836 0.00121280  0.00001894  0.0000852 0.0000
  8    -39.8012126407  -0.000000166146 0.00081076  0.00001268  0.0000435 0.0000
  9    -39.8012126936  -0.000000052970 0.00002286  0.00000083  0.0000182 0.0000
 10    -39.8012126967  -0.000000003042 0.00001083  0.00000034  0.0000070 0.0000
                 **** Energy Check signals convergence ****

               *****************************************************
               *                     SUCCESS                       *
               *           SCF CONVERGED AFTER  11 CYCLES          *
               *****************************************************

Old exchange energy                            =     -2.173059748 Eh
New exchange energy                            =     -2.173062743 Eh
Exchange energy change after final integration =     -0.000002995 Eh
Total energy after final integration           =    -39.801215692 Eh
Final COS-X integration done in                =     0.124 sec

----------------
TOTAL SCF ENERGY
----------------

Total Energy       :          -39.80121569 Eh           -1083.04614 eV

Components:
Nuclear Repulsion  :            9.79717990 Eh             266.59482 eV
Electronic Energy  :          -49.59839559 Eh           -1349.64096 eV
One Electron Energy:          -71.81923575 Eh           -1954.30076 eV
Two Electron Energy:           22.22084016 Eh             604.65980 eV
Max COSX asymmetry :            0.00000009 Eh               0.00000 eV

Virial components:
Potential Energy   :          -79.46995640 Eh           -2162.48745 eV
Kinetic Energy     :           39.66874071 Eh            1079.44131 eV
Virial Ratio       :            2.00333953


DFT components:
N(Alpha)           :        4.999997294833 electrons
N(Beta)            :        4.000000227790 electrons
N(Total)           :        8.999997522623 electrons
E(XC)              :       -4.316718970094 Eh       
DFET-embed. en.    :        0.000000000000 Eh       

---------------
SCF CONVERGENCE
---------------

  Last Energy change         ...   -2.8223e-10  Tolerance :   1.0000e-08
  Last MAX-Density change    ...    0.0000e+00  Tolerance :   1.0000e-07
  Last RMS-Density change    ...    0.0000e+00  Tolerance :   5.0000e-09
  Last DIIS Error            ...    1.3067e-06  Tolerance :   5.0000e-07

             **** THE GBW FILE WAS UPDATED (/beegfs/scratch/ispackman/PFAS_EPR_calcs/benchmark/JChemEd_CF3_radical/CH3_radical_97.5_degrees_IN-PROGRESS/CH3_radical_97.5_degrees.gbw) ****
             **** DENSITY /beegfs/scratch/ispackman/PFAS_EPR_calcs/benchmark/JChemEd_CF3_radical/CH3_radical_97.5_degrees_IN-PROGRESS/CH3_radical_97.5_degrees.scfp WAS UPDATED ****
             **** ENERGY FILE WAS UPDATED (/beegfs/scratch/ispackman/PFAS_EPR_calcs/benchmark/JChemEd_CF3_radical/CH3_radical_97.5_degrees_IN-PROGRESS/CH3_radical_97.5_degrees.en.tmp) ****
----------------------
UHF SPIN CONTAMINATION
----------------------

Warning: in a DFT calculation there is little theoretical justification to 
         calculate <S**2> as in Hartree-Fock theory. We will do it anyways
         but you should keep in mind that the values have only limited relevance

Expectation value of <S**2>     :     0.753125
Ideal value S*(S+1) for S=0.5   :     0.750000
Deviation                       :     0.003125

             **** THE GBW FILE WAS UPDATED (/beegfs/scratch/ispackman/PFAS_EPR_calcs/benchmark/JChemEd_CF3_radical/CH3_radical_97.5_degrees_IN-PROGRESS/CH3_radical_97.5_degrees.gbw) ****
             **** DENSITY /beegfs/scratch/ispackman/PFAS_EPR_calcs/benchmark/JChemEd_CF3_radical/CH3_radical_97.5_degrees_IN-PROGRESS/CH3_radical_97.5_degrees.scfp WAS UPDATED ****
----------------
ORBITAL ENERGIES
----------------
                 SPIN UP ORBITALS
  NO   OCC          E(Eh)            E(eV) 
   0   1.0000     -10.296170      -280.1730 
   1   1.0000      -0.823587       -22.4109 
   2   1.0000      -0.490649       -13.3512 
   3   1.0000      -0.490627       -13.3506 
   4   1.0000      -0.393763       -10.7148 
   5   0.0000       0.074687         2.0323 
   6   0.0000       0.161565         4.3964 
   7   0.0000       0.161571         4.3966 
   8   0.0000       0.171512         4.6671 
   9   0.0000       0.193787         5.2732 
  10   0.0000       0.193788         5.2732 
  11   0.0000       0.238325         6.4851 
  12   0.0000       0.253024         6.8851 
  13   0.0000       0.253031         6.8853 
  14   0.0000       0.315858         8.5949 
  15   0.0000       0.350112         9.5270 
  16   0.0000       0.350118         9.5272 
  17   0.0000       0.352332         9.5874 
  18   0.0000       0.381116        10.3707 
  19   0.0000       0.383121        10.4253 
  20   0.0000       0.383127        10.4254 
  21   0.0000       0.395600        10.7648 
  22   0.0000       0.395610        10.7651 
  23   0.0000       0.530927        14.4472 
  24   0.0000       0.562326        15.3017 
  25   0.0000       0.562334        15.3019 
  26   0.0000       0.659310        17.9407 
  27   0.0000       0.784389        21.3443 
  28   0.0000       0.787746        21.4356 
  29   0.0000       0.787754        21.4359 
  30   0.0000       0.867814        23.6144 
  31   0.0000       0.867828        23.6148 
  32   0.0000       0.962153        26.1815 
  33   0.0000       1.162440        31.6316 
  34   0.0000       1.162476        31.6326 
  35   0.0000       1.647954        44.8431 
  36   0.0000       1.744981        47.4833 
  37   0.0000       1.745027        47.4846 
  38   0.0000       1.788618        48.6708 
  39   0.0000       1.830539        49.8115 
  40   0.0000       1.940184        52.7951 
  41   0.0000       1.940221        52.7961 
  42   0.0000       2.200658        59.8830 
  43   0.0000       2.200714        59.8845 
  44   0.0000       2.204586        59.9898 
  45   0.0000       2.492030        67.8116 
  46   0.0000       2.647781        72.0498 
  47   0.0000       2.647879        72.0525 
  48   0.0000       2.726642        74.1957 
  49   0.0000       2.726719        74.1978 
  50   0.0000       2.785594        75.7999 
  51   0.0000       3.110720        84.6470 
  52   0.0000       3.154560        85.8399 
  53   0.0000       3.154658        85.8426 
  54   0.0000       3.266434        88.8842 
  55   0.0000       3.329366        90.5967 
  56   0.0000       3.337764        90.8252 
  57   0.0000       3.337810        90.8264 
  58   0.0000       3.728046       101.4453 
  59   0.0000       3.728092       101.4465 
  60   0.0000       4.304024       117.1184 
  61   0.0000       4.478859       121.8760 
  62   0.0000       4.478973       121.8790 
  63   0.0000      22.178309       603.5025 

                 SPIN DOWN ORBITALS
  NO   OCC          E(Eh)            E(eV) 
   0   1.0000     -10.284380      -279.8522 
   1   1.0000      -0.789010       -21.4701 
   2   1.0000      -0.474865       -12.9217 
   3   1.0000      -0.474847       -12.9212 
   4   0.0000      -0.039453        -1.0736 
   5   0.0000       0.082890         2.2556 
   6   0.0000       0.166678         4.5355 
   7   0.0000       0.166680         4.5356 
   8   0.0000       0.201200         5.4749 
   9   0.0000       0.201203         5.4750 
  10   0.0000       0.206822         5.6279 
  11   0.0000       0.253285         6.8922 
  12   0.0000       0.256681         6.9847 
  13   0.0000       0.256683         6.9847 
  14   0.0000       0.323995         8.8164 
  15   0.0000       0.366610         9.9760 
  16   0.0000       0.366610         9.9760 
  17   0.0000       0.368561        10.0291 
  18   0.0000       0.380922        10.3654 
  19   0.0000       0.390179        10.6173 
  20   0.0000       0.390182        10.6174 
  21   0.0000       0.403981        10.9929 
  22   0.0000       0.403983        10.9929 
  23   0.0000       0.566625        15.4187 
  24   0.0000       0.566627        15.4187 
  25   0.0000       0.568810        15.4781 
  26   0.0000       0.667699        18.1690 
  27   0.0000       0.791747        21.5445 
  28   0.0000       0.800516        21.7831 
  29   0.0000       0.800526        21.7834 
  30   0.0000       0.887412        24.1477 
  31   0.0000       0.887440        24.1485 
  32   0.0000       0.979479        26.6530 
  33   0.0000       1.173595        31.9351 
  34   0.0000       1.173614        31.9357 
  35   0.0000       1.718353        46.7588 
  36   0.0000       1.754798        47.7505 
  37   0.0000       1.754829        47.7513 
  38   0.0000       1.789988        48.7080 
  39   0.0000       1.844427        50.1894 
  40   0.0000       1.955552        53.2133 
  41   0.0000       1.955572        53.2138 
  42   0.0000       2.208127        60.0862 
  43   0.0000       2.211114        60.1675 
  44   0.0000       2.211121        60.1677 
  45   0.0000       2.506893        68.2160 
  46   0.0000       2.654733        72.2390 
  47   0.0000       2.654750        72.2394 
  48   0.0000       2.752696        74.9047 
  49   0.0000       2.752726        74.9055 
  50   0.0000       2.808250        76.4164 
  51   0.0000       3.159086        85.9631 
  52   0.0000       3.201427        87.1153 
  53   0.0000       3.201453        87.1160 
  54   0.0000       3.288675        89.4894 
  55   0.0000       3.354174        91.2717 
  56   0.0000       3.375172        91.8431 
  57   0.0000       3.375176        91.8432 
  58   0.0000       3.772784       102.6627 
  59   0.0000       3.772804       102.6632 
  60   0.0000       4.327382       117.7540 
  61   0.0000       4.501554       122.4935 
  62   0.0000       4.501595       122.4946 
  63   0.0000      22.198355       604.0479 

                    ********************************
                    * MULLIKEN POPULATION ANALYSIS *
                    ********************************

--------------------------------------------
MULLIKEN ATOMIC CHARGES AND SPIN POPULATIONS
--------------------------------------------
   0 C :   -0.692147    0.888261
   1 H :    0.230446    0.037285
   2 H :    0.230850    0.037227
   3 H :    0.230851    0.037227
Sum of atomic charges         :    0.0000000
Sum of atomic spin populations:    1.0000000

-----------------------------------------------------
MULLIKEN REDUCED ORBITAL CHARGES AND SPIN POPULATIONS
-----------------------------------------------------
CHARGE
  0 C s       :     3.310138  s :     3.310138
      pz      :     0.964369  p :     3.326721
      px      :     1.181159
      py      :     1.181193
      dz2     :     0.000090  d :     0.054731
      dxz     :     0.019791
      dyz     :     0.019797
      dx2y2   :     0.007519
      dxy     :     0.007533
      f0      :     0.000284  f :     0.000557
      f+1     :     0.000034
      f-1     :     0.000034
      f+2     :    -0.000055
      f-2     :    -0.000052
      f+3     :     0.000312
      f-3     :     0.000000
  1 H s       :     0.727681  s :     0.727681
      pz      :     0.022463  p :     0.041873
      px      :     0.013765
      py      :     0.005644
  2 H s       :     0.727396  s :     0.727396
      pz      :     0.022417  p :     0.041754
      px      :     0.007646
      py      :     0.011692
  3 H s       :     0.727395  s :     0.727395
      pz      :     0.022416  p :     0.041754
      px      :     0.007646
      py      :     0.011692

SPIN
  0 C s       :     0.032166  s :     0.032166
      pz      :     0.858799  p :     0.867940
      px      :     0.004529
      py      :     0.004612
      dz2     :    -0.000439  d :    -0.011384
      dxz     :    -0.005039
      dyz     :    -0.005035
      dx2y2   :    -0.000439
      dxy     :    -0.000432
      f0      :    -0.000472  f :    -0.000460
      f+1     :     0.000073
      f-1     :     0.000073
      f+2     :    -0.000015
      f-2     :    -0.000013
      f+3     :    -0.000106
      f-3     :     0.000000
  1 H s       :     0.015940  s :     0.015940
      pz      :     0.019175  p :     0.021345
      px      :    -0.000633
      py      :     0.002803
  2 H s       :     0.015931  s :     0.015931
      pz      :     0.019133  p :     0.021296
      px      :     0.001937
      py      :     0.000226
  3 H s       :     0.015931  s :     0.015931
      pz      :     0.019133  p :     0.021296
      px      :     0.001937
      py      :     0.000226


                     *******************************
                     * LOEWDIN POPULATION ANALYSIS *
                     *******************************

-------------------------------------------
LOEWDIN ATOMIC CHARGES AND SPIN POPULATIONS
-------------------------------------------
   0 C :    0.054617    0.836920
   1 H :   -0.018229    0.054362
   2 H :   -0.018194    0.054359
   3 H :   -0.018194    0.054359

----------------------------------------------------
LOEWDIN REDUCED ORBITAL CHARGES AND SPIN POPULATIONS
----------------------------------------------------
CHARGE
  0 C s       :     2.903531  s :     2.903531
      pz      :     0.764619  p :     2.908300
      px      :     1.071837
      py      :     1.071844
      dz2     :     0.002845  d :     0.121867
      dxz     :     0.032612
      dyz     :     0.032612
      dx2y2   :     0.026897
      dxy     :     0.026901
      f0      :     0.001438  f :     0.011685
      f+1     :     0.000199
      f-1     :     0.000199
      f+2     :     0.003864
      f-2     :     0.003866
      f+3     :     0.002118
      f-3     :     0.000000
  1 H s       :     0.746494  s :     0.746494
      pz      :     0.071876  p :     0.271735
      px      :     0.121082
      py      :     0.078778
  2 H s       :     0.746475  s :     0.746475
      pz      :     0.071870  p :     0.271719
      px      :     0.089346
      py      :     0.110503
  3 H s       :     0.746475  s :     0.746475
      pz      :     0.071870  p :     0.271719
      px      :     0.089346
      py      :     0.110503

SPIN
  0 C s       :     0.125255  s :     0.125255
      pz      :     0.680152  p :     0.722698
      px      :     0.021280
      py      :     0.021266
      dz2     :     0.000994  d :    -0.010920
      dxz     :    -0.004435
      dyz     :    -0.004439
      dx2y2   :    -0.001524
      dxy     :    -0.001517
      f0      :    -0.000180  f :    -0.000114
      f+1     :     0.000095
      f-1     :     0.000095
      f+2     :    -0.000214
      f-2     :    -0.000213
      f+3     :     0.000302
      f-3     :     0.000000
  1 H s       :    -0.000070  s :    -0.000070
      pz      :     0.052556  p :     0.054433
      px      :     0.002919
      py      :    -0.001042
  2 H s       :    -0.000077  s :    -0.000077
      pz      :     0.052554  p :     0.054436
      px      :    -0.000055
      py      :     0.001937
  3 H s       :    -0.000077  s :    -0.000077
      pz      :     0.052554  p :     0.054436
      px      :    -0.000055
      py      :     0.001937


                      *****************************
                      * MAYER POPULATION ANALYSIS *
                      *****************************

  NA   - Mulliken gross atomic population
  ZA   - Total nuclear charge
  QA   - Mulliken gross atomic charge
  VA   - Mayer's total valence
  BVA  - Mayer's bonded valence
  FA   - Mayer's free valence

  ATOM       NA         ZA         QA         VA         BVA        FA
  0 C      6.6921     6.0000    -0.6921     3.8353     3.0661     0.7692
  1 H      0.7696     1.0000     0.2304     1.0052     1.0037     0.0014
  2 H      0.7691     1.0000     0.2309     1.0047     1.0033     0.0014
  3 H      0.7691     1.0000     0.2309     1.0047     1.0033     0.0014

  Mayer bond orders larger than 0.100000
B(  0-C ,  1-H ) :   1.0223 B(  0-C ,  2-H ) :   1.0219 B(  0-C ,  3-H ) :   1.0219 


-------
TIMINGS
-------

Total SCF time: 0 days 0 hours 0 min 7 sec 

Total time                  ....       7.515 sec
Sum of individual times     ....       6.925 sec  ( 92.2%)

Fock matrix formation       ....       5.839 sec  ( 77.7%)
  Split-RI-J                ....       0.798 sec  ( 13.7% of F)
  Chain of spheres X        ....       1.324 sec  ( 22.7% of F)
  XC integration            ....       1.158 sec  ( 19.8% of F)
    Basis function eval.    ....       0.051 sec  (  4.4% of XC)
    Density eval.           ....       0.050 sec  (  4.3% of XC)
    XC-Functional eval.     ....       0.053 sec  (  4.5% of XC)
    XC-Potential eval.      ....       0.071 sec  (  6.1% of XC)
Diagonalization             ....       0.161 sec  (  2.1%)
Density matrix formation    ....       0.007 sec  (  0.1%)
Population analysis         ....       0.125 sec  (  1.7%)
Initial guess               ....       0.095 sec  (  1.3%)
Orbital Transformation      ....       0.000 sec  (  0.0%)
Orbital Orthonormalization  ....       0.000 sec  (  0.0%)
DIIS solution               ....       0.349 sec  (  4.6%)
Grid generation             ....       0.350 sec  (  4.7%)

Maximum memory used throughout the entire SCF-calculation: 58.5 MB


-------------------------------------------------------------------------------
                          DFT DISPERSION CORRECTION                            
                                                                               
                              DFTD3 V3.1  Rev 1                                
                              USING zero damping                               
-------------------------------------------------------------------------------
The omegaB97X-D3 functional is recognized. Fit by Chai et al.
Active option DFTDOPT                   ...         3   

molecular C6(AA) [au] = 106.956771 


            DFT-D V3
 parameters
 s6 scaling factor         :     1.0000 
 rs6 scaling factor        :     1.2810 
 s8 scaling factor         :     1.0000 
 rs8 scaling factor        :     1.0940 
 Damping factor alpha6     :    14.0000 
 Damping factor alpha8     :    16.0000 
 ad hoc parameters k1-k3   :    16.0000     1.3333    -4.0000 

 Edisp/kcal,au: -0.003806964057  -0.000006066783 
 E6   /kcal   :  -0.000591654 
 E8   /kcal   :  -0.003215310 
 % E8         :  84.458649385 

-------------------------   ----------------
Dispersion correction           -0.000006067
-------------------------   ----------------


-------------------------   --------------------
FINAL SINGLE POINT ENERGY       -39.801221758897
-------------------------   --------------------



           ************************************************************
           *        Program running with 18 parallel MPI-processes    *
           *              working on a common directory               *
           ************************************************************
------------------------------------------------------------------------------
                         ORCA SCF GRADIENT CALCULATION
------------------------------------------------------------------------------

 ... reading COSX grid (gridx3)
Gradient of the Kohn-Sham DFT energy:
Kohn-Sham wavefunction type      ... UKS
Hartree-Fock exchange scaling    ...    0.196
Number of operators              ...    2
Number of atoms                  ...    4
Basis set dimensions             ...   64
Integral neglect threshold       ... 2.5e-11
Integral primitive cutoff        ... 2.5e-12
SHARK Integral package           ... ON

Nuc. rep. gradient       (SHARK) ... done (  0.0 sec)
HCore & Overlap gradient (SHARK) ... done (  0.0 sec)
RI-J gradient            (SHARK) ... done (  0.1 sec)
COSX-gradient                    ... done (  0.1 sec)
Exchange-correlation gradient    ... done
Dispersion correction            ... done

------------------
CARTESIAN GRADIENT
------------------

WARNING: THERE ARE 3 CONSTRAINED CARTESIAN COORDINATES
   1   C   :   -0.000086301   -0.000000021    0.072020025
   2   H   :   -0.028978469    0.000000028   -0.024030944
   3   H   :    0.014502725   -0.025037733   -0.023979046
   4   H   :    0.014502751    0.025037734   -0.023979027

Difference to translation invariance:
           :   -0.0000592953    0.0000000076    0.0000310081

Difference to rotation invariance:
           :   -0.0000000004    0.0000646164    0.0000000893

Norm of the cartesian gradient     ...    0.0971007353
RMS gradient                       ...    0.0280305678
MAX gradient                       ...    0.0720200250

-------
TIMINGS
-------

Total SCF gradient time            ...        0.648 sec

One electron gradient       ....       0.006 sec  (  1.0%)
RI-J Coulomb gradient       ....       0.149 sec  ( 22.9%)
COSX gradient               ....       0.118 sec  ( 18.2%)
XC gradient                 ....       0.057 sec  (  8.8%)

Maximum memory used throughout the entire SCFGRAD-calculation: 33.6 MB
------------------------------------------------------------------------------
                         ORCA GEOMETRY RELAXATION STEP
------------------------------------------------------------------------------

Reading the OPT-File                    .... done
Getting information on internals        .... done
Copying old internal coords+grads       .... done
Making the new internal coordinates     .... (new redundants).... done
Validating the new internal coordinates .... (new redundants).... done
Calculating the B-matrix                .... done
Calculating the G,G- and P matrices     .... done
Transforming gradient to internals      .... done
Projecting the internal gradient        .... done
Number of atoms                         ....   4
Number of internal coordinates          ....   7
Current Energy                          ....   -39.801221759 Eh
Current gradient norm                   ....     0.097100735 Eh/bohr
Maximum allowed component of the step   ....  0.300
Current trust radius                    ....  0.300
Evaluating the initial hessian          ....  (Almloef) done
Projecting the Hessian                  .... done
Forming the augmented Hessian           .... done
Diagonalizing the augmented Hessian     .... done
Last element of RFO vector              ....  0.998141004
Lowest eigenvalues of augmented Hessian:
 -0.001398043  0.373574723  0.373574723  0.374972766 1000.000000000
Length of the computed step             ....  0.061060508
The final length of the internal step   ....  0.061060508
Converting the step to cartesian space:
 Initial RMS(Int)=    0.0230787028
Transforming coordinates:
 Iter   0:  RMS(Cart)=    0.0159154412 RMS(Int)=    0.0230787028
 Iter   1:  RMS(Cart)=    0.0000000000 RMS(Int)=    0.0000000000
Imposing constraints:
 Iter   0:  RMS(Cart)=    0.0000000002 RMS(Int)=    0.0000000003
CONVERGED
done
Storing new coordinates                 .... done

                                .--------------------.
          ----------------------|Geometry convergence|-------------------------
          Item                value                   Tolerance       Converged
          ---------------------------------------------------------------------
          RMS gradient        0.0086538850            0.0001000000      NO
          MAX gradient        0.0132202090            0.0003000000      NO
          RMS step            0.0230787028            0.0020000000      NO
          MAX step            0.0352564510            0.0040000000      NO
          ........................................................
          Max(Bonds)      0.0187      Max(Angles)    0.00
          Max(Dihed)        0.00      Max(Improp)    0.00
          ---------------------------------------------------------------------

The optimization has not yet converged - more geometry cycles are needed


    ---------------------------------------------------------------------------
                         Redundant Internal Coordinates
                            (Angstroem and degrees)

        Definition                    Value    dE/dq     Step     New-Value
    ----------------------------------------------------------------------------
     1. B(H   1,C   0)                1.0800 -0.013217  0.0187    1.0987   
     2. B(H   2,C   0)                1.0800 -0.013220  0.0187    1.0987   
     3. B(H   3,C   0)                1.0800 -0.013220  0.0187    1.0987   
     4. A(H   2,C   0,H   3)           97.50 -0.050233    0.00     97.50 C 
     5. A(H   1,C   0,H   2)           97.50 -0.023305   -0.00     97.50 C 
     6. A(H   1,C   0,H   3)           97.50 -0.023304    0.00     97.50 C 
     7. I(H   1,H   3,H   2,C   0)     78.58  0.041534    0.00     78.58   
    ----------------------------------------------------------------------------

         *************************************************************
         *                GEOMETRY OPTIMIZATION CYCLE   2            *
         *************************************************************
---------------------------------
CARTESIAN COORDINATES (ANGSTROEM)
---------------------------------
  C      0.000002    0.000000    0.006944
  H      0.953795    0.000000   -0.538320
  H     -0.476898    0.826014   -0.538321
  H     -0.476898   -0.826014   -0.538321

----------------------------
CARTESIAN COORDINATES (A.U.)
----------------------------
  NO LB      ZA    FRAG     MASS         X           Y           Z
   0 C     6.0000    0    12.011    0.000003    0.000000    0.013122
   1 H     1.0000    0     1.008    1.802412    0.000000   -1.017278
   2 H     1.0000    0     1.008   -0.901207    1.560940   -1.017280
   3 H     1.0000    0     1.008   -0.901208   -1.560940   -1.017280

--------------------------------
INTERNAL COORDINATES (ANGSTROEM)
--------------------------------
 C      0   0   0     0.000000000000     0.00000000     0.00000000
 H      1   0   0     1.098651933288     0.00000000     0.00000000
 H      1   2   0     1.098656885977    97.49999998     0.00000000
 H      1   2   3     1.098656910388    97.49999998    98.63393302

---------------------------
INTERNAL COORDINATES (A.U.)
---------------------------
 C      0   0   0     0.000000000000     0.00000000     0.00000000
 H      1   0   0     2.076151270418     0.00000000     0.00000000
 H      1   2   0     2.076160629643    97.49999998     0.00000000
 H      1   2   3     2.076160675773    97.49999998    98.63393302



           ************************************************************
           *        Program running with 18 parallel MPI-processes    *
           *              working on a common directory               *
           ************************************************************
------------------------------------------------------------------------------
                   ___                                                        
                  /   \      - P O W E R E D   B Y -                         
                 /     \                                                     
                 |  |  |   _    _      __       _____    __    __             
                 |  |  |  | |  | |    /  \     |  _  \  |  |  /  |          
                  \  \/   | |  | |   /    \    | | | |  |  | /  /          
                 / \  \   | |__| |  /  /\  \   | |_| |  |  |/  /          
                |  |  |   |  __  | /  /__\  \  |    /   |      \           
                |  |  |   | |  | | |   __   |  |    \   |  |\   \          
                \     /   | |  | | |  |  |  |  | |\  \  |  | \   \       
                 \___/    |_|  |_| |__|  |__|  |_| \__\ |__|  \__/        
                                                                              
                      - O R C A' S   B I G   F R I E N D -                    
                                      &                                       
                       - I N T E G R A L  F E E D E R -                       
                                                                              
 v1 FN, 2020, v2 2021                                                         
------------------------------------------------------------------------------


Reading SHARK input file /beegfs/scratch/ispackman/PFAS_EPR_calcs/benchmark/JChemEd_CF3_radical/CH3_radical_97.5_degrees_IN-PROGRESS/CH3_radical_97.5_degrees.SHARKINP.tmp ... ok
----------------------
SHARK INTEGRAL PACKAGE
----------------------

Number of atoms                             ...      4
Number of basis functions                   ...     64
Number of shells                            ...     28
Maximum angular momentum                    ...      3
Integral batch strategy                     ... SHARK/LIBINT Hybrid
RI-J (if used) integral strategy            ... SPLIT-RIJ (Revised 2003 algorithm where possible)
Printlevel                                  ...      1
Contraction scheme used                     ... SEGMENTED contraction
Coulomb Range Separation                    ... NOT USED
Exchange Range Separation                   ... Long Range
   Mu parameter                             ...  0.250000
   Scaling (regular/separated)              ...  0.195728  0.804272
Finite Nucleus Model                        ... NOT USED
Auxiliary Coulomb fitting basis             ... AVAILABLE
   # of basis functions in Aux-J            ...     82
   # of shells in Aux-J                     ...     30
   Maximum angular momentum in Aux-J        ...      4
Auxiliary J/K fitting basis                 ... NOT available
Auxiliary Correlation fitting basis         ... NOT available
Auxiliary 'external' fitting basis          ... NOT available
Integral threshold                          ...     2.500000e-11
Primitive cut-off                           ...     2.500000e-12
Primitive pair pre-selection threshold      ...     2.500000e-12

Calculating pre-screening integrals         ... done (  0.0 sec) Dimension = 28
Organizing shell pair data                  ... done (  0.0 sec)
Shell pair information
Total number of shell pairs                 ...       406
Shell pairs after pre-screening             ...       406
Total number of primitive shell pairs       ...       977
Primitive shell pairs kept                  ...       947
          la=0 lb=0:    120 shell pairs
          la=1 lb=0:    135 shell pairs
          la=1 lb=1:     45 shell pairs
          la=2 lb=0:     45 shell pairs
          la=2 lb=1:     27 shell pairs
          la=2 lb=2:      6 shell pairs
          la=3 lb=0:     15 shell pairs
          la=3 lb=1:      9 shell pairs
          la=3 lb=2:      3 shell pairs
          la=3 lb=3:      1 shell pairs

Calculating one electron integrals          ... done (  0.0 sec)
Calculating RI/J V-Matrix + Cholesky decomp.... done (  0.0 sec)
Calculating Nuclear repulsion               ... done (  0.0 sec) ENN=      9.630823099611 Eh

SHARK setup successfully completed in   0.4 seconds

Maximum memory used throughout the entire GTOINT-calculation: 14.0 MB


           ************************************************************
           *        Program running with 18 parallel MPI-processes    *
           *              working on a common directory               *
           ************************************************************

Diagonalization of the overlap matrix:
Smallest eigenvalue                        ... 4.173e-05
Time for diagonalization                   ...    0.001 sec
Threshold for overlap eigenvalues          ... 1.000e-08
Number of eigenvalues below threshold      ... 0
Time for construction of square roots      ...    0.019 sec
Total time needed                          ...    0.022 sec

-------------------
DFT GRID GENERATION
-------------------

General Integration Accuracy     IntAcc      ... 4.388
Radial Grid Type                 RadialGrid  ... OptM3 with GC (2021)
Angular Grid (max. ang.)         AngularGrid ... 4 (Lebedev-302)
Angular grid pruning method      GridPruning ... 4 (adaptive)
Weight generation scheme         WeightScheme... Becke
Basis function cutoff            BFCut       ... 1.0000e-11
Integration weight cutoff        WCut        ... 1.0000e-14
Angular grids for H and He will be reduced by one unit
Partially contracted basis set               ... off
Rotationally invariant grid construction     ... off

Total number of grid points                  ...    17038
Total number of batches                      ...      268
Average number of points per batch           ...       63
Average number of grid points per atom       ...     4260
Time for grid setup =    0.096 sec

--------------------
COSX GRID GENERATION
--------------------

GRIDX 1
-------
General Integration Accuracy     IntAcc      ... 3.816
Radial Grid Type                 RadialGrid  ... OptM3 with GC (2021)
Angular Grid (max. ang.)         AngularGrid ... 1 (Lebedev-50)
Angular grid pruning method      GridPruning ... 4 (adaptive)
Weight generation scheme         WeightScheme... Becke
Basis function cutoff            BFCut       ... 1.0000e-11
Integration weight cutoff        WCut        ... 1.0000e-14
Angular grids for H and He will be reduced by one unit
Partially contracted basis set               ... on
Rotationally invariant grid construction     ... off

Total number of grid points                  ...     2145
Total number of batches                      ...       36
Average number of points per batch           ...       59
Average number of grid points per atom       ...      536
UseSFitting                                  ... on

GRIDX 2
-------
General Integration Accuracy     IntAcc      ... 4.020
Radial Grid Type                 RadialGrid  ... OptM3 with GC (2021)
Angular Grid (max. ang.)         AngularGrid ... 2 (Lebedev-110)
Angular grid pruning method      GridPruning ... 4 (adaptive)
Weight generation scheme         WeightScheme... Becke
Basis function cutoff            BFCut       ... 1.0000e-11
Integration weight cutoff        WCut        ... 1.0000e-14
Angular grids for H and He will be reduced by one unit
Partially contracted basis set               ... on
Rotationally invariant grid construction     ... off

Total number of grid points                  ...     5058
Total number of batches                      ...       81
Average number of points per batch           ...       62
Average number of grid points per atom       ...     1264
UseSFitting                                  ... on

GRIDX 3
-------
General Integration Accuracy     IntAcc      ... 4.338
Radial Grid Type                 RadialGrid  ... OptM3 with GC (2021)
Angular Grid (max. ang.)         AngularGrid ... 3 (Lebedev-194)
Angular grid pruning method      GridPruning ... 4 (adaptive)
Weight generation scheme         WeightScheme... Becke
Basis function cutoff            BFCut       ... 1.0000e-11
Integration weight cutoff        WCut        ... 1.0000e-14
Angular grids for H and He will be reduced by one unit
Partially contracted basis set               ... on
Rotationally invariant grid construction     ... off

Total number of grid points                  ...    11718
Total number of batches                      ...      185
Average number of points per batch           ...       63
Average number of grid points per atom       ...     2930
UseSFitting                                  ... on

Time for X-Grid setup             =    0.244 sec

--------------
SCF ITERATIONS
--------------
ITER       Energy         Delta-E        Max-DP      RMS-DP      [F,P]     Damp
               ***  Starting incremental Fock matrix formation  ***
  0    -39.8017272404   0.000000000000 0.01717641  0.00028226  0.0054037 0.7000
  1    -39.8017922422  -0.000065001844 0.01494166  0.00024616  0.0039487 0.7000
                               ***Turning on DIIS***
  2    -39.8018357531  -0.000043510876 0.03837611  0.00063322  0.0028689 0.0000
  3    -39.8019313742  -0.000095621078 0.00672775  0.00011519  0.0007627 0.0000
               *** Restarting incremental Fock matrix formation ***
                                   *** Resetting DIIS ***
  4    -39.8019359062  -0.000004531991 0.00091254  0.00002277  0.0003702 0.0000
  5    -39.8019366484  -0.000000742252 0.00050472  0.00000992  0.0002162 0.0000
  6    -39.8019369673  -0.000000318939 0.00022540  0.00000549  0.0000467 0.0000
  7    -39.8019369926  -0.000000025237 0.00008637  0.00000173  0.0000109 0.0000
                 **** Energy Check signals convergence ****

               *****************************************************
               *                     SUCCESS                       *
               *           SCF CONVERGED AFTER   8 CYCLES          *
               *****************************************************

Old exchange energy                            =     -2.168028131 Eh
New exchange energy                            =     -2.168031389 Eh
Exchange energy change after final integration =     -0.000003258 Eh
Total energy after final integration           =    -39.801940251 Eh
Final COS-X integration done in                =     0.120 sec
Total Energy       :          -39.80194025 Eh           -1083.06586 eV
  Last Energy change         ...   -1.0351e-09  Tolerance :   1.0000e-08
  Last MAX-Density change    ...    0.0000e+00  Tolerance :   1.0000e-07
             **** THE GBW FILE WAS UPDATED (/beegfs/scratch/ispackman/PFAS_EPR_calcs/benchmark/JChemEd_CF3_radical/CH3_radical_97.5_degrees_IN-PROGRESS/CH3_radical_97.5_degrees.gbw) ****
             **** DENSITY /beegfs/scratch/ispackman/PFAS_EPR_calcs/benchmark/JChemEd_CF3_radical/CH3_radical_97.5_degrees_IN-PROGRESS/CH3_radical_97.5_degrees.scfp WAS UPDATED ****
             **** ENERGY FILE WAS UPDATED (/beegfs/scratch/ispackman/PFAS_EPR_calcs/benchmark/JChemEd_CF3_radical/CH3_radical_97.5_degrees_IN-PROGRESS/CH3_radical_97.5_degrees.en.tmp) ****
----------------------
UHF SPIN CONTAMINATION
----------------------

Warning: in a DFT calculation there is little theoretical justification to 
         calculate <S**2> as in Hartree-Fock theory. We will do it anyways
         but you should keep in mind that the values have only limited relevance

Expectation value of <S**2>     :     0.753238
Ideal value S*(S+1) for S=0.5   :     0.750000
Deviation                       :     0.003238

             **** THE GBW FILE WAS UPDATED (/beegfs/scratch/ispackman/PFAS_EPR_calcs/benchmark/JChemEd_CF3_radical/CH3_radical_97.5_degrees_IN-PROGRESS/CH3_radical_97.5_degrees.gbw) ****
             **** DENSITY /beegfs/scratch/ispackman/PFAS_EPR_calcs/benchmark/JChemEd_CF3_radical/CH3_radical_97.5_degrees_IN-PROGRESS/CH3_radical_97.5_degrees.scfp WAS UPDATED ****
Total SCF time: 0 days 0 hours 0 min 5 sec 

Maximum memory used throughout the entire SCF-calculation: 58.5 MB


-------------------------------------------------------------------------------
                          DFT DISPERSION CORRECTION                            
                                                                               
                              DFTD3 V3.1  Rev 1                                
                              USING zero damping                               
-------------------------------------------------------------------------------
-------------------------   ----------------
Dispersion correction           -0.000006960
-------------------------   ----------------


-------------------------   --------------------
FINAL SINGLE POINT ENERGY       -39.801947211256
-------------------------   --------------------



           ************************************************************
           *        Program running with 18 parallel MPI-processes    *
           *              working on a common directory               *
           ************************************************************
------------------------------------------------------------------------------
                         ORCA SCF GRADIENT CALCULATION
------------------------------------------------------------------------------

 ... reading COSX grid (gridx3)
Gradient of the Kohn-Sham DFT energy:
Kohn-Sham wavefunction type      ... UKS
Hartree-Fock exchange scaling    ...    0.196
Number of operators              ...    2
Number of atoms                  ...    4
Basis set dimensions             ...   64
Integral neglect threshold       ... 2.5e-11
Integral primitive cutoff        ... 2.5e-12
SHARK Integral package           ... ON

Nuc. rep. gradient       (SHARK) ... done (  0.0 sec)
HCore & Overlap gradient (SHARK) ... done (  0.0 sec)
RI-J gradient            (SHARK) ... done (  0.1 sec)
COSX-gradient                    ... done (  0.1 sec)
Exchange-correlation gradient    ... done
Dispersion correction            ... done

------------------
CARTESIAN GRADIENT
------------------

WARNING: THERE ARE 3 CONSTRAINED CARTESIAN COORDINATES
   1   C   :   -0.000100427    0.000000009    0.087190323
   2   H   :   -0.017441962    0.000000006   -0.029086302
   3   H   :    0.008740173   -0.015054448   -0.029039264
   4   H   :    0.008740163    0.015054434   -0.029039294

Difference to translation invariance:
           :   -0.0000620540    0.0000000012    0.0000254632

Difference to rotation invariance:
           :    0.0000000385    0.0000440356    0.0000000086

Norm of the cartesian gradient     ...    0.1050952448
RMS gradient                       ...    0.0303383840
MAX gradient                       ...    0.0871903233

-------
TIMINGS
-------

Total SCF gradient time            ...        0.636 sec

One electron gradient       ....       0.006 sec  (  1.0%)
RI-J Coulomb gradient       ....       0.129 sec  ( 20.2%)
COSX gradient               ....       0.122 sec  ( 19.1%)
XC gradient                 ....       0.058 sec  (  9.1%)

Maximum memory used throughout the entire SCFGRAD-calculation: 33.6 MB
------------------------------------------------------------------------------
                         ORCA GEOMETRY RELAXATION STEP
------------------------------------------------------------------------------

Reading the OPT-File                    .... done
Getting information on internals        .... done
Copying old internal coords+grads       .... done
Making the new internal coordinates     .... (new redundants).... done
Validating the new internal coordinates .... (new redundants).... done
Calculating the B-matrix                .... done
Calculating the G,G- and P matrices     .... done
Transforming gradient to internals      .... done
Projecting the internal gradient        .... done
Number of atoms                         ....   4
Number of internal coordinates          ....   7
Current Energy                          ....   -39.801947211 Eh
Current gradient norm                   ....     0.105095245 Eh/bohr
Maximum allowed component of the step   ....  0.300
Current trust radius                    ....  0.300
Updating the Hessian (BFGS)             .... done
Forming the augmented Hessian           .... done
Diagonalizing the augmented Hessian     .... done
Last element of RFO vector              ....  0.999994186
Lowest eigenvalues of augmented Hessian:
 -0.000004130  0.355142479  0.373574723  0.373576763 999.999999999
Length of the computed step             ....  0.003410001
The final length of the internal step   ....  0.003410001
Converting the step to cartesian space:
 Initial RMS(Int)=    0.0012888592
Transforming coordinates:
 Iter   0:  RMS(Cart)=    0.0008888067 RMS(Int)=    0.0012888592
 Iter   1:  RMS(Cart)=    0.0000000000 RMS(Int)=    0.0000000000
Imposing constraints:
 Iter   0:  RMS(Cart)=    0.0000000001 RMS(Int)=    0.0000000002
CONVERGED
done
Storing new coordinates                 .... done

                                .--------------------.
          ----------------------|Geometry convergence|-------------------------
          Item                value                   Tolerance       Converged
          ---------------------------------------------------------------------
          Energy change      -0.0007254524            0.0000050000      NO
          RMS gradient        0.0004577287            0.0001000000      NO
          MAX gradient        0.0007039459            0.0003000000      NO
          RMS step            0.0012888592            0.0020000000      YES
          MAX step            0.0019821996            0.0040000000      YES
          ........................................................
          Max(Bonds)      0.0010      Max(Angles)    0.00
          Max(Dihed)        0.00      Max(Improp)    0.00
          ---------------------------------------------------------------------

The optimization has not yet converged - more geometry cycles are needed


    ---------------------------------------------------------------------------
                         Redundant Internal Coordinates
                            (Angstroem and degrees)

        Definition                    Value    dE/dq     Step     New-Value
    ----------------------------------------------------------------------------
     1. B(H   1,C   0)                1.0987 -0.000690  0.0010    1.0997   
     2. B(H   2,C   0)                1.0987 -0.000704  0.0010    1.0997   
     3. B(H   3,C   0)                1.0987 -0.000704  0.0010    1.0997   
     4. A(H   2,C   0,H   3)           97.50 -0.049162   -0.00     97.50 C 
     5. A(H   1,C   0,H   2)           97.50 -0.022812   -0.00     97.50 C 
     6. A(H   1,C   0,H   3)           97.50 -0.022812   -0.00     97.50 C 
     7. I(H   1,H   3,H   2,C   0)     78.58  0.040655    0.00     78.58   
    ----------------------------------------------------------------------------

         *************************************************************
         *                GEOMETRY OPTIMIZATION CYCLE   3            *
         *************************************************************
---------------------------------
CARTESIAN COORDINATES (ANGSTROEM)
---------------------------------
  C      0.000008   -0.000000    0.007332
  H      0.954691   -0.000000   -0.538447
  H     -0.477350    0.826803   -0.538452
  H     -0.477350   -0.826803   -0.538452

----------------------------
CARTESIAN COORDINATES (A.U.)
----------------------------
  NO LB      ZA    FRAG     MASS         X           Y           Z
   0 C     6.0000    0    12.011    0.000015   -0.000000    0.013855
   1 H     1.0000    0     1.008    1.804105   -0.000000   -1.017518
   2 H     1.0000    0     1.008   -0.902060    1.562431   -1.017527
   3 H     1.0000    0     1.008   -0.902060   -1.562430   -1.017527

--------------------------------
INTERNAL COORDINATES (ANGSTROEM)
--------------------------------
 C      0   0   0     0.000000000000     0.00000000     0.00000000
 H      1   0   0     1.099679425799     0.00000000     0.00000000
 H      1   2   0     1.099705820802    97.49999997     0.00000000
 H      1   2   3     1.099705812782    97.49999997    98.63393302

---------------------------
INTERNAL COORDINATES (A.U.)
---------------------------
 C      0   0   0     0.000000000000     0.00000000     0.00000000
 H      1   0   0     2.078092949869     0.00000000     0.00000000
 H      1   2   0     2.078142829194    97.49999997     0.00000000
 H      1   2   3     2.078142814040    97.49999997    98.63393302



           ************************************************************
           *        Program running with 18 parallel MPI-processes    *
           *              working on a common directory               *
           ************************************************************
------------------------------------------------------------------------------
                   ___                                                        
                  /   \      - P O W E R E D   B Y -                         
                 /     \                                                     
                 |  |  |   _    _      __       _____    __    __             
                 |  |  |  | |  | |    /  \     |  _  \  |  |  /  |          
                  \  \/   | |  | |   /    \    | | | |  |  | /  /          
                 / \  \   | |__| |  /  /\  \   | |_| |  |  |/  /          
                |  |  |   |  __  | /  /__\  \  |    /   |      \           
                |  |  |   | |  | | |   __   |  |    \   |  |\   \          
                \     /   | |  | | |  |  |  |  | |\  \  |  | \   \       
[...]
  ZA   - Total nuclear charge
  QA   - Mulliken gross atomic charge
  VA   - Mayer's total valence
  BVA  - Mayer's bonded valence
  FA   - Mayer's free valence

  ATOM       NA         ZA         QA         VA         BVA        FA
  0 C      6.6604     6.0000    -0.6604     3.8459     3.0616     0.7844
  1 H      0.7801     1.0000     0.2199     1.0130     1.0119     0.0011
  2 H      0.7797     1.0000     0.2203     1.0124     1.0112     0.0011
  3 H      0.7797     1.0000     0.2203     1.0124     1.0112     0.0011

  Mayer bond orders larger than 0.100000
B(  0-C ,  1-H ) :   1.0209 B(  0-C ,  2-H ) :   1.0203 B(  0-C ,  3-H ) :   1.0203 


-------
TIMINGS
-------

Total SCF time: 0 days 0 hours 0 min 4 sec 

Total time                  ....       4.149 sec
Sum of individual times     ....       3.629 sec  ( 87.5%)

Fock matrix formation       ....       2.970 sec  ( 71.6%)
  Split-RI-J                ....       0.495 sec  ( 16.7% of F)
  Chain of spheres X        ....       0.768 sec  ( 25.9% of F)
  XC integration            ....       0.576 sec  ( 19.4% of F)
    Basis function eval.    ....       0.025 sec  (  4.4% of XC)
    Density eval.           ....       0.024 sec  (  4.2% of XC)
    XC-Functional eval.     ....       0.026 sec  (  4.5% of XC)
    XC-Potential eval.      ....       0.032 sec  (  5.6% of XC)
Diagonalization             ....       0.077 sec  (  1.9%)
Density matrix formation    ....       0.007 sec  (  0.2%)
Population analysis         ....       0.112 sec  (  2.7%)
Initial guess               ....       0.006 sec  (  0.1%)
Orbital Transformation      ....       0.000 sec  (  0.0%)
Orbital Orthonormalization  ....       0.002 sec  (  0.1%)
DIIS solution               ....       0.093 sec  (  2.2%)
Grid generation             ....       0.364 sec  (  8.8%)

Maximum memory used throughout the entire SCF-calculation: 58.5 MB


-------------------------------------------------------------------------------
                          DFT DISPERSION CORRECTION                            
                                                                               
                              DFTD3 V3.1  Rev 1                                
                              USING zero damping                               
-------------------------------------------------------------------------------
The omegaB97X-D3 functional is recognized. Fit by Chai et al.
Active option DFTDOPT                   ...         3   

molecular C6(AA) [au] = 107.008557 


            DFT-D V3
 parameters
 s6 scaling factor         :     1.0000 
 rs6 scaling factor        :     1.2810 
 s8 scaling factor         :     1.0000 
 rs8 scaling factor        :     1.0940 
 Damping factor alpha6     :    14.0000 
 Damping factor alpha8     :    16.0000 
 ad hoc parameters k1-k3   :    16.0000     1.3333    -4.0000 

 Edisp/kcal,au: -0.004402555671  -0.000007015918 
 E6   /kcal   :  -0.000684269 
 E8   /kcal   :  -0.003718286 
 % E8         :  84.457455416 

-------------------------   ----------------
Dispersion correction           -0.000007016
-------------------------   ----------------


-------------------------   --------------------
FINAL SINGLE POINT ENERGY       -39.801949440533
-------------------------   --------------------

                                *** OPTIMIZATION RUN DONE ***

                            ***************************************
                            *     ORCA property calculations      *
                            ***************************************

                                    ---------------------
                                    Active property flags
                                    ---------------------
   (+) Dipole Moment


------------------------------------------------------------------------------
                       ORCA ELECTRIC PROPERTIES CALCULATION
------------------------------------------------------------------------------

Dipole Moment Calculation                       ... on
Quadrupole Moment Calculation                   ... off
Polarizability Calculation                      ... off
GBWName                                         ... /beegfs/scratch/ispackman/PFAS_EPR_calcs/benchmark/JChemEd_CF3_radical/CH3_radical_97.5_degrees_IN-PROGRESS/CH3_radical_97.5_degrees.gbw
Electron density                                ... /beegfs/scratch/ispackman/PFAS_EPR_calcs/benchmark/JChemEd_CF3_radical/CH3_radical_97.5_degrees_IN-PROGRESS/CH3_radical_97.5_degrees.scfp
The origin for moment calculation is the CENTER OF MASS  = ( 0.000012,  0.000000 -0.193557)

-------------
DIPOLE MOMENT
-------------
                                X             Y             Z
Electronic contribution:      0.00008      -0.00000       0.91545
Nuclear contribution   :     -0.00003      -0.00000      -1.22722
                        -----------------------------------------
Total Dipole Moment    :      0.00005      -0.00000      -0.31177
                        -----------------------------------------
Magnitude (a.u.)       :      0.31177
Magnitude (Debye)      :      0.79246



--------------------
Rotational spectrum 
--------------------
 
Rotational constants in cm-1:     8.035381     8.035194     6.115522 
Rotational constants in MHz : 240894.660782 240889.067422 183338.726947 

 Dipole components along the rotational axes: 
x,y,z [a.u.] :     0.000000     0.000042    -0.311771 
x,y,z [Debye]:     0.000000     0.000106    -0.792458 

 


           ************************************************************
           *        Program running with 18 parallel MPI-processes    *
           *              working on a common directory               *
           ************************************************************

-------------------------------------------------------------------------------
                               ORCA SCF HESSIAN
-------------------------------------------------------------------------------

                   --------- SHARK INITIALIZATION DONE ---------

Hessian of the Kohn-Sham DFT energy:
Kohn-Sham wavefunction type                      ... UKS
Hartree-Fock exchange scaling                    ...    0.196
Number of operators                              ...    2
Number of atoms                                  ...    4
Basis set dimensions                             ...   64
Integral neglect threshold                       ... 2.5e-11
Integral primitive cutoff                        ... 2.5e-12

Setting up DFT Hessian calculations              ... 

HESS GRID
---------

General Integration Accuracy     IntAcc      ... 4.629
Radial Grid Type                 RadialGrid  ... OptM3 with GC (2021)
Angular Grid (max. ang.)         AngularGrid ... 5 (Lebedev-434)
Angular grid pruning method      GridPruning ... 4 (adaptive)
Weight generation scheme         WeightScheme... Becke
Basis function cutoff            BFCut       ... 1.0000e-11
Integration weight cutoff        WCut        ... 1.0000e-14
Angular grids for H and He will be reduced by one unit
Partially contracted basis set               ... off
Rotationally invariant grid construction     ... off

Total number of grid points                  ...    27266
Total number of batches                      ...      428
Average number of points per batch           ...       63
Average number of grid points per atom       ...     6816

Building densities                               ... done   (      0.0 sec)
Calculating rho(r) on the grid                   ... done   (      0.1 sec)
Building xc-kernel on the grid                   ... done   (      0.1 sec)
                                                     done   (      0.4 sec)

Nuclear repulsion Hessian  (SHARK)               ... done   (      0.0 sec)

----------------------------------------------
Forming right-hand sides of CP-SCF equations     ...
----------------------------------------------
One electron integral derivatives  (SHARK)       ... done   (      0.0 sec)
Transforming the overlap derivative matrices     ... done   (      0.0 sec)
Making the Q(x) pseudodensities                  ... done   (      0.0 sec)
Adding the E*S(x)*S(y) terms to the Hessian      ... done   (      0.0 sec)
Calculating energy weighted overlap derivatives  ... done   (      0.0 sec)
Two electron integral derivatives (SHARK-RI)     ... done   (      0.6 sec)
Exchange-correlation integral derivatives        ... done   (      0.4 sec)
tr(F(y)Q(x)) contribution to the Hessian         ... done   (      0.0 sec)
Response fock operator R(S(x)) (SHARK-RIJCOSX)   ... done   (      0.5 sec)
XC Response fock operator R(S(x))                ... done   (      0.1 sec)
tr(F(y)S(x)) contribution to the Hessian         ... done   (      0.0 sec)
Transforming and finalizing RHSs                 ... done   (      0.0 sec)

----------------------------------------------
Solving the CP-SCF equations (RIJCOSX)           ...
----------------------------------------------
     CP-SCF ITERATION   0:   1.3279e-01 (   0.3 sec   0/ 12 done)
     CP-SCF ITERATION   1:   3.1299e-02 (   0.3 sec   0/ 12 done)
     CP-SCF ITERATION   2:   1.1815e-02 (   0.3 sec   0/ 12 done)
     CP-SCF ITERATION   3:   4.0130e-03 (   0.3 sec   0/ 12 done)
     CP-SCF ITERATION   4:   6.3531e-04 (   0.3 sec   1/ 12 done)
     CP-SCF ITERATION   5:   1.4724e-04 (   0.3 sec   5/ 12 done)
     CP-SCF ITERATION   6:   3.2493e-05 (   0.3 sec  12/ 12 done)
                    *** THE CP-SCF HAS CONVERGED ***

                                                 ... done   (      2.3 sec)
Forming perturbed density Hessian contributions  ... done   (      0.0 sec)
2nd integral derivative contribs (SHARK-RI)      ... done   (      0.8 sec)
Exchange-correlation Hessian                     ... done   (      0.3 sec)
Dispersion correction in the Hessian             ... done   (      0.1 sec)
Dipole derivatives                               ... (center of mass:  0.000012,  0.000000 -0.193557)done   (      0.1 sec)

Total SCF Hessian time: 0 days 0 hours 0 min 6 sec 

Writing the Hessian file to the disk             ... done


Maximum memory used throughout the entire SCFHESS-calculation: 109.5 MB

-----------------------
VIBRATIONAL FREQUENCIES
-----------------------

Scaling factor for frequencies =  1.000000000  (already applied!)

   0:         0.00 cm**-1
   1:         0.00 cm**-1
   2:         0.00 cm**-1
   3:         0.00 cm**-1
   4:         0.00 cm**-1
   5:         0.00 cm**-1
   6:      1351.46 cm**-1
   7:      1383.20 cm**-1
   8:      1384.54 cm**-1
   9:      3040.23 cm**-1
  10:      3059.80 cm**-1
  11:      3060.02 cm**-1


------------
NORMAL MODES
------------

These modes are the Cartesian displacements weighted by the diagonal matrix
M(i,i)=1/sqrt(m[i]) where m[i] is the mass of the displaced atom
Thus, these vectors are normalized but *not* orthogonal

                  0          1          2          3          4          5    
      0       0.000000   0.000000   0.000000   0.000000   0.000000   0.000000
      1       0.000000   0.000000   0.000000   0.000000   0.000000   0.000000
      2       0.000000   0.000000   0.000000   0.000000   0.000000   0.000000
      3       0.000000   0.000000   0.000000   0.000000   0.000000   0.000000
      4       0.000000   0.000000   0.000000   0.000000   0.000000   0.000000
      5       0.000000   0.000000   0.000000   0.000000   0.000000   0.000000
      6       0.000000   0.000000   0.000000   0.000000   0.000000   0.000000
      7       0.000000   0.000000   0.000000   0.000000   0.000000   0.000000
      8       0.000000   0.000000   0.000000   0.000000   0.000000   0.000000
      9       0.000000   0.000000   0.000000   0.000000   0.000000   0.000000
     10       0.000000   0.000000   0.000000   0.000000   0.000000   0.000000
     11       0.000000   0.000000   0.000000   0.000000   0.000000   0.000000
                  6          7          8          9         10         11    
      0      -0.003582   0.000006   0.069378   0.000914  -0.083686  -0.000074
      1      -0.000001  -0.069492   0.000006  -0.000001  -0.000074   0.083658
      2       0.126914  -0.000001   0.005900  -0.057107  -0.000622  -0.000002
      3      -0.279499   0.000017   0.165154  -0.537677   0.711376   0.000618
      4       0.000007   0.729613  -0.000064  -0.000001  -0.000047   0.052979
      5      -0.520369   0.000030   0.291637   0.230976  -0.377572  -0.000329
      6       0.161095   0.392771  -0.495957   0.263390   0.142603   0.333775
      7      -0.213481   0.049181  -0.403393  -0.455247  -0.338236  -0.525214
      8      -0.495950  -0.273310  -0.180946   0.224741   0.192201   0.329187
      9       0.161087  -0.392860  -0.495889   0.263400   0.143191  -0.333514
     10       0.213482   0.049247   0.403384   0.455264   0.339162  -0.524602
     11      -0.495945   0.273287  -0.180994   0.224752   0.192781  -0.328839


-----------
IR SPECTRUM
-----------

 Mode   freq       eps      Int      T**2         TX        TY        TZ
       cm**-1   L/(mol*cm) km/mol    a.u.
----------------------------------------------------------------------------
  6:   1351.46   0.001371    6.93  0.000316  ( 0.000881  0.000000 -0.017768)
  7:   1383.20   0.001059    5.35  0.000239  (-0.000001  0.015457  0.000000)
  8:   1384.54   0.001088    5.50  0.000245  (-0.015637 -0.000001 -0.000907)
  9:   3040.23   0.000016    0.08  0.000002  ( 0.000380 -0.000000 -0.001220)
 10:   3059.80   0.008043   40.65  0.000820  (-0.028641 -0.000026 -0.000061)
 11:   3060.02   0.008210   41.49  0.000837  (-0.000025  0.028935 -0.000000)

* The epsilon (eps) is given for a Dirac delta lineshape.
** The dipole moment derivative (T) already includes vibrational overlap.

The first frequency considered to be a vibration is 6
The total number of vibrations considered is 6


--------------------------
THERMOCHEMISTRY AT 298.15K
--------------------------

Temperature         ... 298.15 K
Pressure            ... 1.00 atm
Total Mass          ... 15.03 AMU

Throughout the following assumptions are being made:
  (1) The electronic state is orbitally nondegenerate
      but the spin degeneracy is treated
  (2) There are no thermally accessible electronically excited states
  (3) Hindered rotations indicated by low frequency modes are not
      treated as such but are treated as vibrations and this may
      cause some error
  (4) All equations used are the standard statistical mechanics
      equations for an ideal gas
  (5) All vibrations are strictly harmonic

freq.    1351.46  E(vib)   ...       0.01 
freq.    1383.20  E(vib)   ...       0.00 
freq.    1384.54  E(vib)   ...       0.00 
freq.    3040.23  E(vib)   ...       0.00 
freq.    3059.80  E(vib)   ...       0.00 
freq.    3060.02  E(vib)   ...       0.00 

------------
INNER ENERGY
------------

The inner energy is: U= E(el) + E(ZPE) + E(vib) + E(rot) + E(trans)
    E(el)   - is the total energy from the electronic structure calculation
              = E(kin-el) + E(nuc-el) + E(el-el) + E(nuc-nuc)
    E(ZPE)  - the the zero temperature vibrational energy from the frequency calculation
    E(vib)  - the the finite temperature correction to E(ZPE) due to population
              of excited vibrational states
    E(rot)  - is the rotational thermal energy
    E(trans)- is the translational thermal energy

Summary of contributions to the inner energy U:
Electronic energy                ...    -39.80194944 Eh
Zero point energy                ...      0.03025235 Eh      18.98 kcal/mol
Thermal vibrational correction   ...      0.00002498 Eh       0.02 kcal/mol
Thermal rotational correction    ...      0.00141627 Eh       0.89 kcal/mol
Thermal translational correction ...      0.00141627 Eh       0.89 kcal/mol
-----------------------------------------------------------------------
Total thermal energy                    -39.76883956 Eh


Summary of corrections to the electronic energy:
(perhaps to be used in another calculation)
Total thermal correction                  0.00285752 Eh       1.79 kcal/mol
Non-thermal (ZPE) correction              0.03025235 Eh      18.98 kcal/mol
-----------------------------------------------------------------------
Total correction                          0.03310988 Eh      20.78 kcal/mol


--------
ENTHALPY
--------

The enthalpy is H = U + kB*T
                kB is Boltzmann's constant
Total free energy                 ...    -39.76883956 Eh 
Thermal Enthalpy correction       ...      0.00094421 Eh       0.59 kcal/mol
-----------------------------------------------------------------------
Total Enthalpy                    ...    -39.76789536 Eh


Note: Rotational entropy computed according to Herzberg 
Infrared and Raman Spectra, Chapter V,1, Van Nostrand Reinhold, 1945 
Point Group:  C3v, Symmetry Number:   3  
Rotational constants in cm-1:     8.035381     8.035194     6.115522 

Vibrational entropy computed according to the QRRHO of S. Grimme
Chem.Eur.J. 2012 18 9955


-------
ENTROPY
-------

The entropy contributions are T*S = T*(S(el)+S(vib)+S(rot)+S(trans))
     S(el)   - electronic entropy
     S(vib)  - vibrational entropy
     S(rot)  - rotational entropy
     S(trans)- translational entropy
The entropies will be listed as multiplied by the temperature to get
units of energy

Electronic entropy                ...      0.00065446 Eh      0.41 kcal/mol
Vibrational entropy               ...      0.00002876 Eh      0.02 kcal/mol
Rotational entropy                ...      0.00565112 Eh      3.55 kcal/mol
Translational entropy             ...      0.01618771 Eh     10.16 kcal/mol
-----------------------------------------------------------------------
Final entropy term                ...      0.02252204 Eh     14.13 kcal/mol

In case the symmetry of your molecule has not been determined correctly
or in case you have a reason to use a different symmetry number we print 
out the resulting rotational entropy values for sn=1,12 :
 --------------------------------------------------------
|  sn= 1 | S(rot)=       0.00668841 Eh      4.20 kcal/mol|
|  sn= 2 | S(rot)=       0.00603395 Eh      3.79 kcal/mol|
|  sn= 3 | S(rot)=       0.00565112 Eh      3.55 kcal/mol|
|  sn= 4 | S(rot)=       0.00537950 Eh      3.38 kcal/mol|
|  sn= 5 | S(rot)=       0.00516881 Eh      3.24 kcal/mol|
|  sn= 6 | S(rot)=       0.00499666 Eh      3.14 kcal/mol|
|  sn= 7 | S(rot)=       0.00485112 Eh      3.04 kcal/mol|
|  sn= 8 | S(rot)=       0.00472504 Eh      2.97 kcal/mol|
|  sn= 9 | S(rot)=       0.00461383 Eh      2.90 kcal/mol|
|  sn=10 | S(rot)=       0.00451435 Eh      2.83 kcal/mol|
|  sn=11 | S(rot)=       0.00442436 Eh      2.78 kcal/mol|
|  sn=12 | S(rot)=       0.00434221 Eh      2.72 kcal/mol|
 --------------------------------------------------------


-------------------
GIBBS FREE ENERGY
-------------------

The Gibbs free energy is G = H - T*S

Total enthalpy                    ...    -39.76789536 Eh 
Total entropy correction          ...     -0.02252204 Eh    -14.13 kcal/mol
-----------------------------------------------------------------------
Final Gibbs free energy         ...    -39.79041740 Eh

For completeness - the Gibbs free energy minus the electronic energy
G-E(el)                           ...      0.01153205 Eh      7.24 kcal/mol


Timings for individual modules:

Sum of individual times         ...       65.286 sec (=   1.088 min)
GTO integral calculation        ...       12.007 sec (=   0.200 min)  18.4 %
SCF iterations                  ...       33.783 sec (=   0.563 min)  51.7 %
SCF Gradient evaluation         ...        9.751 sec (=   0.163 min)  14.9 %
Geometry relaxation             ...        0.171 sec (=   0.003 min)   0.3 %
Analytical frequency calculation...        9.574 sec (=   0.160 min)  14.7 %
                             ****ORCA TERMINATED NORMALLY****
TOTAL RUN TIME: 0 days 0 hours 1 minutes 16 seconds 644 msec

slurmID:    32260137
totalRuntime[s]:    76.703863688
