
                                 *****************
                                 * O   R   C   A *
                                 *****************

                                            #,                                       
                                            ###                                      
                                            ####                                     
                                            #####                                    
                                            ######                                   
                                           ########,                                 
                                     ,,################,,,,,                         
                               ,,#################################,,                 
                          ,,##########################################,,             
                       ,#########################################, ''#####,          
                    ,#############################################,,   '####,        
                  ,##################################################,,,,####,       
                ,###########''''           ''''###############################       
              ,#####''   ,,,,##########,,,,          '''####'''          '####       
            ,##' ,,,,###########################,,,                        '##       
           ' ,,###''''                  '''############,,,                           
         ,,##''                                '''############,,,,        ,,,,,,###''
      ,#''                                            '''#######################'''  
     '                                                          ''''####''''         
             ,#######,   #######,   ,#######,      ##                                
            ,#'     '#,  ##    ##  ,#'     '#,    #''#        ######   ,####,        
            ##       ##  ##   ,#'  ##            #'  '#       #        #'  '#        
            ##       ##  #######   ##           ,######,      #####,   #    #        
            '#,     ,#'  ##    ##  '#,     ,#' ,#      #,         ##   #,  ,#        
             '#######'   ##     ##  '#######'  #'      '#     #####' # '####'        



                  #######################################################
                  #                        -***-                        #
                  #          Department of theory and spectroscopy      #
                  #    Directorship and core code : Frank Neese         #
                  #        Max Planck Institute fuer Kohlenforschung    #
                  #                Kaiser Wilhelm Platz 1               #
                  #                 D-45470 Muelheim/Ruhr               #
                  #                      Germany                        #
                  #                                                     #
                  #                  All rights reserved                #
                  #                        -***-                        #
                  #######################################################


                         Program Version 5.0.4 -  RELEASE  -


 With contributions from (in alphabetic order):
   Daniel Aravena         : Magnetic Suceptibility
   Michael Atanasov       : Ab Initio Ligand Field Theory (pilot matlab implementation)
   Alexander A. Auer      : GIAO ZORA, VPT2 properties, NMR spectrum
   Ute Becker             : Parallelization
   Giovanni Bistoni       : ED, misc. LED, open-shell LED, HFLD
   Martin Brehm           : Molecular dynamics
   Dmytro Bykov           : SCF Hessian
   Vijay G. Chilkuri      : MRCI spin determinant printing, contributions to CSF-ICE
   Dipayan Datta          : RHF DLPNO-CCSD density
   Achintya Kumar Dutta   : EOM-CC, STEOM-CC
   Dmitry Ganyushin       : Spin-Orbit,Spin-Spin,Magnetic field MRCI
   Miquel Garcia          : C-PCM and meta-GGA Hessian, CC/C-PCM, Gaussian charge scheme
   Yang Guo               : DLPNO-NEVPT2, F12-NEVPT2, CIM, IAO-localization
   Andreas Hansen         : Spin unrestricted coupled pair/coupled cluster methods
   Benjamin Helmich-Paris : MC-RPA, TRAH-SCF, COSX integrals
   Lee Huntington         : MR-EOM, pCC
   Robert Izsak           : Overlap fitted RIJCOSX, COSX-SCS-MP3, EOM
   Marcus Kettner         : VPT2
   Christian Kollmar      : KDIIS, OOCD, Brueckner-CCSD(T), CCSD density, CASPT2, CASPT2-K
   Simone Kossmann        : Meta GGA functionals, TD-DFT gradient, OOMP2, MP2 Hessian
   Martin Krupicka        : Initial AUTO-CI
   Lucas Lang             : DCDCAS
   Marvin Lechner         : AUTO-CI (C++ implementation), FIC-MRCC
   Dagmar Lenk            : GEPOL surface, SMD
   Dimitrios Liakos       : Extrapolation schemes; Compound Job, initial MDCI parallelization
   Dimitrios Manganas     : Further ROCIS development; embedding schemes
   Dimitrios Pantazis     : SARC Basis sets
   Anastasios Papadopoulos: AUTO-CI, single reference methods and gradients
   Taras Petrenko         : DFT Hessian,TD-DFT gradient, ASA, ECA, R-Raman, ABS, FL, XAS/XES, NRVS
   Peter Pinski           : DLPNO-MP2, DLPNO-MP2 Gradient
   Christoph Reimann      : Effective Core Potentials
   Marius Retegan         : Local ZFS, SOC
   Christoph Riplinger    : Optimizer, TS searches, QM/MM, DLPNO-CCSD(T), (RO)-DLPNO pert. Triples
   Tobias Risthaus        : Range-separated hybrids, TD-DFT gradient, RPA, STAB
   Michael Roemelt        : Original ROCIS implementation
   Masaaki Saitow         : Open-shell DLPNO-CCSD energy and density
   Barbara Sandhoefer     : DKH picture change effects
   Avijit Sen             : IP-ROCIS
   Kantharuban Sivalingam : CASSCF convergence, NEVPT2, FIC-MRCI
   Bernardo de Souza      : ESD, SOC TD-DFT
   Georgi Stoychev        : AutoAux, RI-MP2 NMR, DLPNO-MP2 response
   Willem Van den Heuvel  : Paramagnetic NMR
   Boris Wezisla          : Elementary symmetry handling
   Frank Wennmohs         : Technical directorship


 We gratefully acknowledge several colleagues who have allowed us to
 interface, adapt or use parts of their codes:
   Stefan Grimme, W. Hujo, H. Kruse, P. Pracht,  : VdW corrections, initial TS optimization,
                  C. Bannwarth, S. Ehlert          DFT functionals, gCP, sTDA/sTD-DF
   Ed Valeev, F. Pavosevic, A. Kumar             : LibInt (2-el integral package), F12 methods
   Garnet Chan, S. Sharma, J. Yang, R. Olivares  : DMRG
   Ulf Ekstrom                                   : XCFun DFT Library
   Mihaly Kallay                                 : mrcc  (arbitrary order and MRCC methods)
   Jiri Pittner, Ondrej Demel                    : Mk-CCSD
   Frank Weinhold                                : gennbo (NPA and NBO analysis)
   Christopher J. Cramer and Donald G. Truhlar   : smd solvation model
   Lars Goerigk                                  : TD-DFT with DH, B97 family of functionals
   V. Asgeirsson, H. Jonsson                     : NEB implementation
   FAccTs GmbH                                   : IRC, NEB, NEB-TS, DLPNO-Multilevel, CI-OPT
                                                   MM, QMMM, 2- and 3-layer-ONIOM, Crystal-QMMM,
                                                   LR-CPCM, SF, NACMEs, symmetry and pop. for TD-DFT,
                                                   nearIR, NL-DFT gradient (VV10), updates on ESD,
                                                   ML-optimized integration grids
   S Lehtola, MJT Oliveira, MAL Marques          : LibXC Library
   Liviu Ungur et al                             : ANISO software


 Your calculation uses the libint2 library for the computation of 2-el integrals
 For citations please refer to: http://libint.valeyev.net

 Your ORCA version has been built with support for libXC version: 5.1.0
 For citations please refer to: https://tddft.org/programs/libxc/

 This ORCA versions uses:
   CBLAS   interface :  Fast vector & matrix operations
   LAPACKE interface :  Fast linear algebra routines
   SCALAPACK package :  Parallel linear algebra routines
   Shared memory     :  Shared parallel matrices
   BLAS/LAPACK       :  OpenBLAS 0.3.15  USE64BITINT DYNAMIC_ARCH NO_AFFINITY SkylakeX SINGLE_THREADED
        Core in use  :  SkylakeX
   Copyright (c) 2011-2014, The OpenBLAS Project


Your calculation utilizes the atom-pairwise dispersion correction
with the zero-damping scheme (D30)
Cite in your paper:
S.Grimme, J.Antony, S.Ehrlich and H.Krieg, J.Chem.Phys., 132, (2010), 154104 
   

XCFun DFT library Copyright 2009-2010 Ulf Ekstrom and contributors.
See http://admol.org/xcfun for more information.
This is free software; see the source code for copying conditions.
There is ABSOLUTELY NO WARRANTY; not even for MERCHANTABILITY or FITNESS FOR A PARTICULAR PURPOSE.
For details see the documentation.
Scientific users of this library should cite U. Ekstrom, L. Visscher, R. Bast, A. J. Thorvaldsen and K. Ruud;
J.Chem.Theor.Comp. 2010, DOI: 10.1021/ct100117s
XCFun Version 0.99 

================================================================================

----- Orbital basis set information -----
Your calculation utilizes the basis: def2-TZVPD
   F. Weigend and R. Ahlrichs, Phys. Chem. Chem. Phys. 7, 3297 (2005).
   D. Rappoport and F. Furche, J. Chem. Phys. 133 134105 (2010).

----- AuxJ basis set information -----
Your calculation utilizes the auxiliary basis: def2/J
   F. Weigend, Phys. Chem. Chem. Phys. 8, 1057 (2006).

================================================================================
                                        WARNINGS
                       Please study these warnings very carefully!
================================================================================


WARNING: Geometry Optimization
  ===> : Switching off AutoStart
         For restart on a previous wavefunction, please use MOREAD

INFO   : the flag for use of the SHARK integral package has been found!

================================================================================
                                       INPUT FILE
================================================================================
NAME = /beegfs/scratch/ispackman/PFAS_EPR_calcs/benchmark/JChemEd_CF3_radical/CH3_radical_98.5_degrees_IN-PROGRESS/CH3_radical_98.5_degrees.inp
|  1> ! UKS TightSCF wB97x-D3 def2-TZVPD xyzfile opt freq
|  2> 
|  3> # CH3 radical 98.5 degrees fixed
|  4> 
|  5> %maxcore 1000
|  6> %pal
|  7> nprocs 18
|  8> end
|  9> 
| 10> %geom Constraints
| 11>         { A * 0 * C }
| 12>     end
| 13> end
| 14> * xyz 0 2
| 15> C 0.00 0.00 0.00
| 16> H 0.9447415510 0.0000000000 -0.5233195982
| 17> H -0.4723707755 0.8181701831 -0.5233195982
| 18> H -0.4723707755 -0.8181701831 -0.5233195982
| 19> **                         ****END OF INPUT****
================================================================================

                       *****************************
                       * Geometry Optimization Run *
                       *****************************

Geometry optimization settings:
Update method            Update   .... BFGS
Choice of coordinates    CoordSys .... Z-matrix Internals
Initial Hessian          InHess   .... Almoef's Model

Convergence Tolerances:
Energy Change            TolE     ....  5.0000e-06 Eh
Max. Gradient            TolMAXG  ....  3.0000e-04 Eh/bohr
RMS Gradient             TolRMSG  ....  1.0000e-04 Eh/bohr
Max. Displacement        TolMAXD  ....  4.0000e-03 bohr
RMS Displacement         TolRMSD  ....  2.0000e-03 bohr
Strict Convergence                ....  False
------------------------------------------------------------------------------
                        ORCA OPTIMIZATION COORDINATE SETUP
------------------------------------------------------------------------------

The optimization will be done in new redundant internal coordinates
Making redundant internal coordinates   ...  (new redundants) done
Evaluating the initial hessian          ...  (Almloef) done
Evaluating the coordinates              ...  done
Calculating the B-matrix                .... done
Calculating the G-matrix                .... done
Diagonalizing the G-matrix              .... done
Imposing constraints:
 Iter   0:  RMS(Cart)=    0.0000000000 RMS(Int)=    0.0000000000
CONVERGED
Will constrain atom 0 coordinate 1 
Will constrain atom 0 coordinate 2 
Will constrain atom 1 coordinate 2 
The first mode is                       ....    1
The number of degrees of freedom        ....    6
Storing new coordinates                 .... done

    -----------------------------------------------------------------
                    Redundant Internal Coordinates


    -----------------------------------------------------------------
         Definition                    Initial Value    Approx d2E/dq
    -----------------------------------------------------------------
      1. B(H   1,C   0)                  1.0800         0.373575   
      2. B(H   2,C   0)                  1.0800         0.373575   
      3. B(H   3,C   0)                  1.0800         0.373575   
      4. A(H   2,C   0,H   3)           98.5000         0.294224 C 
      5. A(H   1,C   0,H   2)           98.5000         0.294224 C 
      6. A(H   1,C   0,H   3)           98.5000         0.294224 C 
      7. I(H   1,H   3,H   2,C   0)     76.9126         0.002554   
    -----------------------------------------------------------------

Number of atoms                         .... 4
Number of degrees of freedom            .... 7

         *************************************************************
         *                GEOMETRY OPTIMIZATION CYCLE   1            *
         *************************************************************
---------------------------------
CARTESIAN COORDINATES (ANGSTROEM)
---------------------------------
  C      0.000000    0.000000    0.000000
  H      0.944742    0.000000   -0.523320
  H     -0.472371    0.818170   -0.523320
  H     -0.472371   -0.818170   -0.523320

----------------------------
CARTESIAN COORDINATES (A.U.)
----------------------------
  NO LB      ZA    FRAG     MASS         X           Y           Z
   0 C     6.0000    0    12.011    0.000000    0.000000    0.000000
   1 H     1.0000    0     1.008    1.785303    0.000000   -0.988931
   2 H     1.0000    0     1.008   -0.892651    1.546118   -0.988931
   3 H     1.0000    0     1.008   -0.892651   -1.546118   -0.988931

--------------------------------
INTERNAL COORDINATES (ANGSTROEM)
--------------------------------
 C      0   0   0     0.000000000000     0.00000000     0.00000000
 H      1   0   0     1.080000000021     0.00000000     0.00000000
 H      1   2   0     1.079999999963    98.50000000     0.00000000
 H      1   2   3     1.079999999963    98.50000000    99.98826232

---------------------------
INTERNAL COORDINATES (A.U.)
---------------------------
 C      0   0   0     0.000000000000     0.00000000     0.00000000
 H      1   0   0     2.040904224675     0.00000000     0.00000000
 H      1   2   0     2.040904224565    98.50000000     0.00000000
 H      1   2   3     2.040904224565    98.50000000    99.98826232

---------------------
BASIS SET INFORMATION
---------------------
There are 2 groups of distinct atoms

 Group   1 Type C   : 12s6p3d1f contracted to 6s3p3d1f pattern {621111/411/111/1}
 Group   2 Type H   : 5s2p contracted to 3s2p pattern {311/11}

Atom   0C    basis set group =>   1
Atom   1H    basis set group =>   2
Atom   2H    basis set group =>   2
Atom   3H    basis set group =>   2
---------------------------------
AUXILIARY/J BASIS SET INFORMATION
---------------------------------
There are 2 groups of distinct atoms

 Group   1 Type C   : 12s5p4d2f1g contracted to 6s4p3d1f1g pattern {711111/2111/211/2/1}
 Group   2 Type H   : 5s2p1d contracted to 3s1p1d pattern {311/2/1}

Atom   0C    basis set group =>   1
Atom   1H    basis set group =>   2
Atom   2H    basis set group =>   2
Atom   3H    basis set group =>   2


           ************************************************************
           *        Program running with 18 parallel MPI-processes    *
           *              working on a common directory               *
           ************************************************************
------------------------------------------------------------------------------
                           ORCA GTO INTEGRAL CALCULATION
                           -- RI-GTO INTEGRALS CHOSEN --
------------------------------------------------------------------------------
------------------------------------------------------------------------------
                   ___                                                        
                  /   \      - P O W E R E D   B Y -                         
                 /     \                                                     
                 |  |  |   _    _      __       _____    __    __             
                 |  |  |  | |  | |    /  \     |  _  \  |  |  /  |          
                  \  \/   | |  | |   /    \    | | | |  |  | /  /          
                 / \  \   | |__| |  /  /\  \   | |_| |  |  |/  /          
                |  |  |   |  __  | /  /__\  \  |    /   |      \           
                |  |  |   | |  | | |   __   |  |    \   |  |\   \          
                \     /   | |  | | |  |  |  |  | |\  \  |  | \   \       
                 \___/    |_|  |_| |__|  |__|  |_| \__\ |__|  \__/        
                                                                              
                      - O R C A' S   B I G   F R I E N D -                    
                                      &                                       
                       - I N T E G R A L  F E E D E R -                       
                                                                              
 v1 FN, 2020, v2 2021                                                         
------------------------------------------------------------------------------


Reading SHARK input file /beegfs/scratch/ispackman/PFAS_EPR_calcs/benchmark/JChemEd_CF3_radical/CH3_radical_98.5_degrees_IN-PROGRESS/CH3_radical_98.5_degrees.SHARKINP.tmp ... ok
----------------------
SHARK INTEGRAL PACKAGE
----------------------

Number of atoms                             ...      4
Number of basis functions                   ...     64
Number of shells                            ...     28
Maximum angular momentum                    ...      3
Integral batch strategy                     ... SHARK/LIBINT Hybrid
RI-J (if used) integral strategy            ... SPLIT-RIJ (Revised 2003 algorithm where possible)
Printlevel                                  ...      1
Contraction scheme used                     ... SEGMENTED contraction
Coulomb Range Separation                    ... NOT USED
Exchange Range Separation                   ... Long Range
   Mu parameter                             ...  0.250000
   Scaling (regular/separated)              ...  0.195728  0.804272
Finite Nucleus Model                        ... NOT USED
Auxiliary Coulomb fitting basis             ... AVAILABLE
   # of basis functions in Aux-J            ...     82
   # of shells in Aux-J                     ...     30
   Maximum angular momentum in Aux-J        ...      4
Auxiliary J/K fitting basis                 ... NOT available
Auxiliary Correlation fitting basis         ... NOT available
Auxiliary 'external' fitting basis          ... NOT available
Integral threshold                          ...     2.500000e-11
Primitive cut-off                           ...     2.500000e-12
Primitive pair pre-selection threshold      ...     2.500000e-12

Calculating pre-screening integrals         ... done (  0.1 sec) Dimension = 28
Organizing shell pair data                  ... done (  0.1 sec)
Shell pair information
Total number of shell pairs                 ...       406
Shell pairs after pre-screening             ...       406
Total number of primitive shell pairs       ...       977
Primitive shell pairs kept                  ...       947
          la=0 lb=0:    120 shell pairs
          la=1 lb=0:    135 shell pairs
          la=1 lb=1:     45 shell pairs
          la=2 lb=0:     45 shell pairs
          la=2 lb=1:     27 shell pairs
          la=2 lb=2:      6 shell pairs
          la=3 lb=0:     15 shell pairs
          la=3 lb=1:      9 shell pairs
          la=3 lb=2:      3 shell pairs
          la=3 lb=3:      1 shell pairs

Calculating one electron integrals          ... done (  0.0 sec)
Calculating RI/J V-Matrix + Cholesky decomp.... done (  0.2 sec)
Calculating Nuclear repulsion               ... done (  0.0 sec) ENN=      9.789792150129 Eh

SHARK setup successfully completed in   0.7 seconds

Maximum memory used throughout the entire GTOINT-calculation: 14.0 MB


           ************************************************************
           *        Program running with 18 parallel MPI-processes    *
           *              working on a common directory               *
           ************************************************************
-------------------------------------------------------------------------------
                                 ORCA SCF
-------------------------------------------------------------------------------

------------
SCF SETTINGS
------------
Hamiltonian:
 Density Functional     Method          .... DFT(GTOs)
 Exchange Functional    Exchange        .... WB97X-D3
 Correlation Functional Correlation     .... WB97X-D3
 Gradients option       PostSCFGGA      .... off
 Hybrid DFT is turned on
   Fraction HF Exchange ScalHFX         ....  0.195728
   Scaling of DF-GGA-X  ScalDFX         ....  0.000000
   Scaling of DF-GGA-C  ScalDFC         ....  1.000000
   Scaling of DF-LDA-C  ScalLDAC        ....  1.000000
   Perturbative correction              ....  0.000000
   Density functional embedding theory  .... OFF
 Long-range corrected/Screened/Range-Separated Hybrid DFT is turned on
   Amount of maximum screened exact exchange              ....  0.804272
   Range separation parameter mu (erf(mu*r12)/r12)        ....  0.250000
 RI-approximation to the Coulomb term is turned on
   Number of AuxJ basis functions       .... 82
   RIJ-COSX (HFX calculated with COS-X)).... on


General Settings:
 Integral files         IntName         .... /beegfs/scratch/ispackman/PFAS_EPR_calcs/benchmark/JChemEd_CF3_radical/CH3_radical_98.5_degrees_IN-PROGRESS/CH3_radical_98.5_degrees
 Hartree-Fock type      HFTyp           .... UHF
 Total Charge           Charge          ....    0
 Multiplicity           Mult            ....    2
 Number of Electrons    NEL             ....    9
 Basis Dimension        Dim             ....   64
 Nuclear Repulsion      ENuc            ....      9.7897921501 Eh

Convergence Acceleration:
 DIIS                   CNVDIIS         .... on
   Start iteration      DIISMaxIt       ....    12
   Startup error        DIISStart       ....  0.200000
   # of expansion vecs  DIISMaxEq       ....     5
   Bias factor          DIISBfac        ....   1.050
   Max. coefficient     DIISMaxC        ....  10.000
 Trust-Rad. Augm. Hess. CNVTRAH         .... auto
   Auto Start mean grad. ratio tolernc. ....  1.125000
   Auto Start start iteration           ....    20
   Auto Start num. interpolation iter.  ....    10
   Max. Number of Micro iterations      ....    16
   Max. Number of Macro iterations      .... Maxiter - #DIIS iter
   Number of Davidson start vectors     ....     2
   Converg. threshold I  (grad. norm)   ....   1.000e-05
   Converg. threshold II (energy diff.) ....   1.000e-08
   Grad. Scal. Fac. for Micro threshold ....   0.100
   Minimum threshold for Micro iter.    ....   0.010
   NR start threshold (gradient norm)   ....   0.001
   Initial trust radius                 ....   0.400
   Minimum AH scaling param. (alpha)    ....   1.000
   Maximum AH scaling param. (alpha)    .... 1000.000
   Orbital update algorithm             .... Taylor
   White noise on init. David. guess    .... on
   Maximum white noise                  ....   0.010
   Quad. conv. algorithm                .... NR
 SOSCF                  CNVSOSCF        .... off
 Level Shifting         CNVShift        .... on
   Level shift para.    LevelShift      ....    0.2500
   Turn off err/grad.   ShiftErr        ....    0.0010
 Zerner damping         CNVZerner       .... off
 Static damping         CNVDamp         .... on
   Fraction old density DampFac         ....    0.7000
   Max. Damping (<1)    DampMax         ....    0.9800
   Min. Damping (>=0)   DampMin         ....    0.0000
   Turn off err/grad.   DampErr         ....    0.1000
 Fernandez-Rico         CNVRico         .... off

SCF Procedure:
 Maximum # iterations   MaxIter         ....   125
 SCF integral mode      SCFMode         .... Direct
   Integral package                     .... SHARK and LIBINT hybrid scheme
 Reset frequency        DirectResetFreq ....    20
 Integral Threshold     Thresh          ....  2.500e-11 Eh
 Primitive CutOff       TCut            ....  2.500e-12 Eh

Convergence Tolerance:
 Convergence Check Mode ConvCheckMode   .... Total+1el-Energy
 Convergence forced     ConvForced      .... 0
 Energy Change          TolE            ....  1.000e-08 Eh
 1-El. energy change                    ....  1.000e-05 Eh
 DIIS Error             TolErr          ....  5.000e-07


Diagonalization of the overlap matrix:
Smallest eigenvalue                        ... 3.748e-05
Time for diagonalization                   ...    0.002 sec
Threshold for overlap eigenvalues          ... 1.000e-08
Number of eigenvalues below threshold      ... 0
Time for construction of square roots      ...    0.069 sec
Total time needed                          ...    0.072 sec

Time for model grid setup =    0.112 sec

------------------------------
INITIAL GUESS: MODEL POTENTIAL
------------------------------
Loading Hartree-Fock densities                     ... done
Calculating cut-offs                               ... done
Initializing the effective Hamiltonian             ... done
Setting up the integral package (SHARK)            ... done
Starting the Coulomb interaction                   ... done (   0.2 sec)
Reading the grid                                   ... done
Mapping shells                                     ... done
Starting the XC term evaluation                    ... done (   0.0 sec)
  promolecular density results
     # of electrons  =      8.997935617
     EX              =     -5.937439191
     EC              =     -0.260534924
     EX+EC           =     -6.197974115
Transforming the Hamiltonian                       ... done (   0.0 sec)
Diagonalizing the Hamiltonian                      ... done (   0.0 sec)
Back transforming the eigenvectors                 ... done (   0.0 sec)
Now organizing SCF variables                       ... done
                      ------------------
                      INITIAL GUESS DONE (   0.3 sec)
                      ------------------
-------------------
DFT GRID GENERATION
-------------------

General Integration Accuracy     IntAcc      ... 4.388
Radial Grid Type                 RadialGrid  ... OptM3 with GC (2021)
Angular Grid (max. ang.)         AngularGrid ... 4 (Lebedev-302)
Angular grid pruning method      GridPruning ... 4 (adaptive)
Weight generation scheme         WeightScheme... Becke
Basis function cutoff            BFCut       ... 1.0000e-11
Integration weight cutoff        WCut        ... 1.0000e-14
Angular grids for H and He will be reduced by one unit
Partially contracted basis set               ... off
Rotationally invariant grid construction     ... off

Total number of grid points                  ...    17033
Total number of batches                      ...      267
Average number of points per batch           ...       63
Average number of grid points per atom       ...     4258
Time for grid setup =    0.162 sec

--------------------
COSX GRID GENERATION
--------------------

GRIDX 1
-------
General Integration Accuracy     IntAcc      ... 3.816
Radial Grid Type                 RadialGrid  ... OptM3 with GC (2021)
Angular Grid (max. ang.)         AngularGrid ... 1 (Lebedev-50)
Angular grid pruning method      GridPruning ... 4 (adaptive)
Weight generation scheme         WeightScheme... Becke
Basis function cutoff            BFCut       ... 1.0000e-11
Integration weight cutoff        WCut        ... 1.0000e-14
Angular grids for H and He will be reduced by one unit
Partially contracted basis set               ... on
Rotationally invariant grid construction     ... off

Total number of grid points                  ...     2145
Total number of batches                      ...       36
Average number of points per batch           ...       59
Average number of grid points per atom       ...      536
UseSFitting                                  ... on

GRIDX 2
-------
General Integration Accuracy     IntAcc      ... 4.020
Radial Grid Type                 RadialGrid  ... OptM3 with GC (2021)
Angular Grid (max. ang.)         AngularGrid ... 2 (Lebedev-110)
Angular grid pruning method      GridPruning ... 4 (adaptive)
Weight generation scheme         WeightScheme... Becke
Basis function cutoff            BFCut       ... 1.0000e-11
Integration weight cutoff        WCut        ... 1.0000e-14
Angular grids for H and He will be reduced by one unit
Partially contracted basis set               ... on
Rotationally invariant grid construction     ... off

Total number of grid points                  ...     5048
Total number of batches                      ...       81
Average number of points per batch           ...       62
Average number of grid points per atom       ...     1262
UseSFitting                                  ... on

GRIDX 3
-------
General Integration Accuracy     IntAcc      ... 4.338
Radial Grid Type                 RadialGrid  ... OptM3 with GC (2021)
Angular Grid (max. ang.)         AngularGrid ... 3 (Lebedev-194)
Angular grid pruning method      GridPruning ... 4 (adaptive)
Weight generation scheme         WeightScheme... Becke
Basis function cutoff            BFCut       ... 1.0000e-11
Integration weight cutoff        WCut        ... 1.0000e-14
Angular grids for H and He will be reduced by one unit
Partially contracted basis set               ... on
Rotationally invariant grid construction     ... off

Total number of grid points                  ...    11712
Total number of batches                      ...      185
Average number of points per batch           ...       63
Average number of grid points per atom       ...     2928
UseSFitting                                  ... on

Time for X-Grid setup             =    0.578 sec

--------------
SCF ITERATIONS
--------------
ITER       Energy         Delta-E        Max-DP      RMS-DP      [F,P]     Damp
               ***  Starting incremental Fock matrix formation  ***
  0    -39.7672388889   0.000000000000 0.06924477  0.00128917  0.0755432 0.7000
  1    -39.7809560771  -0.013717188164 0.06282956  0.00112594  0.0485928 0.7000
                               ***Turning on DIIS***
  2    -39.7887656641  -0.007809587056 0.13173742  0.00242652  0.0281799 0.0000
  3    -39.8024393314  -0.013673667246 0.04513259  0.00081295  0.0191538 0.0000
  4    -39.8039466489  -0.001507317555 0.01454055  0.00024708  0.0032562 0.0000
  5    -39.8040134707  -0.000066821738 0.01300471  0.00021147  0.0016606 0.0000
  6    -39.8040363712  -0.000022900512 0.01390015  0.00021736  0.0006297 0.0000
               *** Restarting incremental Fock matrix formation ***
                                   *** Resetting DIIS ***
  7    -39.8040437281  -0.000007356960 0.00121648  0.00001904  0.0000845 0.0000
  8    -39.8040438882  -0.000000160030 0.00079404  0.00001245  0.0000417 0.0000
  9    -39.8040439385  -0.000000050364 0.00002243  0.00000082  0.0000174 0.0000
 10    -39.8040439414  -0.000000002909 0.00001033  0.00000033  0.0000068 0.0000
                 **** Energy Check signals convergence ****

               *****************************************************
               *                     SUCCESS                       *
               *           SCF CONVERGED AFTER  11 CYCLES          *
               *****************************************************

Old exchange energy                            =     -2.173202073 Eh
New exchange energy                            =     -2.173205048 Eh
Exchange energy change after final integration =     -0.000002975 Eh
Total energy after final integration           =    -39.804046917 Eh
Final COS-X integration done in                =     0.121 sec

----------------
TOTAL SCF ENERGY
----------------

Total Energy       :          -39.80404692 Eh           -1083.12318 eV

Components:
Nuclear Repulsion  :            9.78979215 Eh             266.39379 eV
Electronic Energy  :          -49.59383907 Eh           -1349.51697 eV
One Electron Energy:          -71.81033375 Eh           -1954.05852 eV
Two Electron Energy:           22.21649469 Eh             604.54155 eV
Max COSX asymmetry :            0.00000008 Eh               0.00000 eV

Virial components:
Potential Energy   :          -79.47202985 Eh           -2162.54387 eV
Kinetic Energy     :           39.66798293 Eh            1079.42069 eV
Virial Ratio       :            2.00343007


DFT components:
N(Alpha)           :        4.999997118613 electrons
N(Beta)            :        4.000000211792 electrons
N(Total)           :        8.999997330405 electrons
E(XC)              :       -4.316740100848 Eh       
DFET-embed. en.    :        0.000000000000 Eh       

---------------
SCF CONVERGENCE
---------------

  Last Energy change         ...   -2.6333e-10  Tolerance :   1.0000e-08
  Last MAX-Density change    ...    0.0000e+00  Tolerance :   1.0000e-07
  Last RMS-Density change    ...    0.0000e+00  Tolerance :   5.0000e-09
  Last DIIS Error            ...    1.2885e-06  Tolerance :   5.0000e-07

             **** THE GBW FILE WAS UPDATED (/beegfs/scratch/ispackman/PFAS_EPR_calcs/benchmark/JChemEd_CF3_radical/CH3_radical_98.5_degrees_IN-PROGRESS/CH3_radical_98.5_degrees.gbw) ****
             **** DENSITY /beegfs/scratch/ispackman/PFAS_EPR_calcs/benchmark/JChemEd_CF3_radical/CH3_radical_98.5_degrees_IN-PROGRESS/CH3_radical_98.5_degrees.scfp WAS UPDATED ****
             **** ENERGY FILE WAS UPDATED (/beegfs/scratch/ispackman/PFAS_EPR_calcs/benchmark/JChemEd_CF3_radical/CH3_radical_98.5_degrees_IN-PROGRESS/CH3_radical_98.5_degrees.en.tmp) ****
----------------------
UHF SPIN CONTAMINATION
----------------------

Warning: in a DFT calculation there is little theoretical justification to 
         calculate <S**2> as in Hartree-Fock theory. We will do it anyways
         but you should keep in mind that the values have only limited relevance

Expectation value of <S**2>     :     0.753083
Ideal value S*(S+1) for S=0.5   :     0.750000
Deviation                       :     0.003083

             **** THE GBW FILE WAS UPDATED (/beegfs/scratch/ispackman/PFAS_EPR_calcs/benchmark/JChemEd_CF3_radical/CH3_radical_98.5_degrees_IN-PROGRESS/CH3_radical_98.5_degrees.gbw) ****
             **** DENSITY /beegfs/scratch/ispackman/PFAS_EPR_calcs/benchmark/JChemEd_CF3_radical/CH3_radical_98.5_degrees_IN-PROGRESS/CH3_radical_98.5_degrees.scfp WAS UPDATED ****
----------------
ORBITAL ENERGIES
----------------
                 SPIN UP ORBITALS
  NO   OCC          E(Eh)            E(eV) 
   0   1.0000     -10.295650      -280.1589 
   1   1.0000      -0.822300       -22.3759 
   2   1.0000      -0.492216       -13.3939 
   3   1.0000      -0.492190       -13.3932 
   4   1.0000      -0.390936       -10.6379 
   5   0.0000       0.074879         2.0376 
   6   0.0000       0.161576         4.3967 
   7   0.0000       0.161582         4.3969 
   8   0.0000       0.173252         4.7144 
   9   0.0000       0.193903         5.2764 
  10   0.0000       0.193905         5.2764 
  11   0.0000       0.236864         6.4454 
  12   0.0000       0.253068         6.8863 
  13   0.0000       0.253073         6.8865 
  14   0.0000       0.315960         8.5977 
  15   0.0000       0.350793         9.5456 
  16   0.0000       0.350800         9.5458 
  17   0.0000       0.353821         9.6279 
  18   0.0000       0.380512        10.3543 
  19   0.0000       0.383280        10.4296 
  20   0.0000       0.383285        10.4297 
  21   0.0000       0.396445        10.7878 
  22   0.0000       0.396454        10.7881 
  23   0.0000       0.531936        14.4747 
  24   0.0000       0.561779        15.2868 
  25   0.0000       0.561787        15.2870 
  26   0.0000       0.648997        17.6601 
  27   0.0000       0.784162        21.3381 
  28   0.0000       0.788544        21.4574 
  29   0.0000       0.788551        21.4576 
  30   0.0000       0.868168        23.6240 
  31   0.0000       0.868181        23.6244 
  32   0.0000       0.966253        26.2931 
  33   0.0000       1.162197        31.6250 
  34   0.0000       1.162232        31.6259 
  35   0.0000       1.648217        44.8503 
  36   0.0000       1.743533        47.4439 
  37   0.0000       1.743594        47.4456 
  38   0.0000       1.780947        48.4620 
  39   0.0000       1.824325        49.6424 
  40   0.0000       1.939898        52.7873 
  41   0.0000       1.939934        52.7883 
  42   0.0000       2.202627        59.9365 
  43   0.0000       2.208671        60.1010 
  44   0.0000       2.208741        60.1029 
  45   0.0000       2.465145        67.0800 
  46   0.0000       2.647887        72.0527 
  47   0.0000       2.647960        72.0546 
  48   0.0000       2.724939        74.1494 
  49   0.0000       2.725029        74.1518 
  50   0.0000       2.795586        76.0718 
  51   0.0000       3.096600        84.2628 
  52   0.0000       3.154877        85.8486 
  53   0.0000       3.154968        85.8510 
  54   0.0000       3.279774        89.2472 
  55   0.0000       3.327267        90.5395 
  56   0.0000       3.327309        90.5407 
  57   0.0000       3.344429        91.0065 
  58   0.0000       3.725811       101.3845 
  59   0.0000       3.725860       101.3858 
  60   0.0000       4.326860       117.7398 
  61   0.0000       4.473657       121.7344 
  62   0.0000       4.473823       121.7389 
  63   0.0000      22.178605       603.5105 

                 SPIN DOWN ORBITALS
  NO   OCC          E(Eh)            E(eV) 
   0   1.0000     -10.283940      -279.8402 
   1   1.0000      -0.787327       -21.4242 
   2   1.0000      -0.476552       -12.9676 
   3   1.0000      -0.476533       -12.9671 
   4   0.0000      -0.037174        -1.0116 
   5   0.0000       0.083159         2.2629 
   6   0.0000       0.166655         4.5349 
   7   0.0000       0.166659         4.5350 
   8   0.0000       0.201070         5.4714 
   9   0.0000       0.201075         5.4715 
  10   0.0000       0.208764         5.6807 
  11   0.0000       0.251983         6.8568 
  12   0.0000       0.256856         6.9894 
  13   0.0000       0.256857         6.9894 
  14   0.0000       0.324593         8.8326 
  15   0.0000       0.366943         9.9850 
  16   0.0000       0.366945         9.9851 
  17   0.0000       0.369098        10.0437 
  18   0.0000       0.380334        10.3494 
  19   0.0000       0.390429        10.6241 
  20   0.0000       0.390432        10.6242 
  21   0.0000       0.404973        11.0199 
  22   0.0000       0.404975        11.0199 
  23   0.0000       0.565986        15.4013 
  24   0.0000       0.565991        15.4014 
  25   0.0000       0.569494        15.4967 
  26   0.0000       0.657476        17.8908 
  27   0.0000       0.791654        21.5420 
  28   0.0000       0.801158        21.8006 
  29   0.0000       0.801165        21.8008 
  30   0.0000       0.888142        24.1676 
  31   0.0000       0.888167        24.1682 
  32   0.0000       0.983848        26.7719 
  33   0.0000       1.173157        31.9232 
  34   0.0000       1.173182        31.9239 
  35   0.0000       1.718308        46.7575 
  36   0.0000       1.753165        47.7060 
  37   0.0000       1.753221        47.7076 
  38   0.0000       1.782294        48.4987 
  39   0.0000       1.838333        50.0236 
  40   0.0000       1.955426        53.2098 
  41   0.0000       1.955458        53.2107 
  42   0.0000       2.206195        60.0336 
  43   0.0000       2.219307        60.3904 
  44   0.0000       2.219331        60.3911 
  45   0.0000       2.480069        67.4861 
  46   0.0000       2.654200        72.2244 
  47   0.0000       2.654210        72.2247 
  48   0.0000       2.750927        74.8565 
  49   0.0000       2.750961        74.8575 
  50   0.0000       2.818326        76.6905 
  51   0.0000       3.143894        85.5497 
  52   0.0000       3.201970        87.1300 
  53   0.0000       3.201973        87.1301 
  54   0.0000       3.301676        89.8432 
  55   0.0000       3.364428        91.5507 
  56   0.0000       3.364442        91.5511 
  57   0.0000       3.371194        91.7349 
  58   0.0000       3.770491       102.6003 
  59   0.0000       3.770499       102.6005 
  60   0.0000       4.350534       118.3840 
  61   0.0000       4.496268       122.3497 
  62   0.0000       4.496382       122.3528 
  63   0.0000      22.198646       604.0559 

                    ********************************
                    * MULLIKEN POPULATION ANALYSIS *
                    ********************************

--------------------------------------------
MULLIKEN ATOMIC CHARGES AND SPIN POPULATIONS
--------------------------------------------
   0 C :   -0.691967    0.887088
   1 H :    0.230379    0.037660
   2 H :    0.230794    0.037626
   3 H :    0.230794    0.037626
Sum of atomic charges         :   -0.0000000
Sum of atomic spin populations:    1.0000000

-----------------------------------------------------
MULLIKEN REDUCED ORBITAL CHARGES AND SPIN POPULATIONS
-----------------------------------------------------
CHARGE
  0 C s       :     3.313755  s :     3.313755
      pz      :     0.961401  p :     3.323879
      px      :     1.181214
      py      :     1.181263
      dz2     :     0.000100  d :     0.053759
      dxz     :     0.019141
      dyz     :     0.019148
      dx2y2   :     0.007677
      dxy     :     0.007692
      f0      :     0.000309  f :     0.000575
      f+1     :     0.000025
      f-1     :     0.000024
      f+2     :    -0.000061
      f-2     :    -0.000058
      f+3     :     0.000335
      f-3     :     0.000000
  1 H s       :     0.727219  s :     0.727219
      pz      :     0.022463  p :     0.042402
      px      :     0.014675
      py      :     0.005264
  2 H s       :     0.726924  s :     0.726924
      pz      :     0.022407  p :     0.042282
      px      :     0.007593
      py      :     0.012283
  3 H s       :     0.726924  s :     0.726924
      pz      :     0.022407  p :     0.042283
      px      :     0.007593
      py      :     0.012283

SPIN
  0 C s       :     0.029745  s :     0.029745
      pz      :     0.860210  p :     0.868952
      px      :     0.004337
      py      :     0.004406
      dz2     :    -0.000584  d :    -0.011103
      dxz     :    -0.004846
      dyz     :    -0.004841
      dx2y2   :    -0.000421
      dxy     :    -0.000412
      f0      :    -0.000471  f :    -0.000505
      f+1     :     0.000053
      f-1     :     0.000053
      f+2     :    -0.000016
      f-2     :    -0.000014
      f+3     :    -0.000111
      f-3     :     0.000000
  1 H s       :     0.016117  s :     0.016117
      pz      :     0.019235  p :     0.021543
      px      :    -0.000518
      py      :     0.002826
  2 H s       :     0.016138  s :     0.016138
      pz      :     0.019188  p :     0.021489
      px      :     0.001984
      py      :     0.000317
  3 H s       :     0.016137  s :     0.016137
      pz      :     0.019188  p :     0.021488
      px      :     0.001984
      py      :     0.000317


                     *******************************
                     * LOEWDIN POPULATION ANALYSIS *
                     *******************************

-------------------------------------------
LOEWDIN ATOMIC CHARGES AND SPIN POPULATIONS
-------------------------------------------
   0 C :    0.054934    0.836507
   1 H :   -0.018338    0.054499
   2 H :   -0.018298    0.054497
   3 H :   -0.018298    0.054497

----------------------------------------------------
LOEWDIN REDUCED ORBITAL CHARGES AND SPIN POPULATIONS
----------------------------------------------------
CHARGE
  0 C s       :     2.904654  s :     2.904654
      pz      :     0.765539  p :     2.907245
      px      :     1.070848
      py      :     1.070858
      dz2     :     0.003196  d :     0.121619
      dxz     :     0.031509
      dyz     :     0.031511
      dx2y2   :     0.027700
      dxy     :     0.027703
      f0      :     0.001454  f :     0.011549
      f+1     :     0.000137
      f-1     :     0.000136
      f+2     :     0.003809
      f-2     :     0.003811
      f+3     :     0.002201
      f-3     :     0.000000
  1 H s       :     0.747853  s :     0.747853
      pz      :     0.071494  p :     0.270485
      px      :     0.121127
      py      :     0.077864
  2 H s       :     0.747830  s :     0.747830
      pz      :     0.071485  p :     0.270468
      px      :     0.088672
      py      :     0.110311
  3 H s       :     0.747830  s :     0.747830
      pz      :     0.071485  p :     0.270468
      px      :     0.088672
      py      :     0.110311

SPIN
  0 C s       :     0.120851  s :     0.120851
      pz      :     0.684701  p :     0.726377
      px      :     0.020848
      py      :     0.020828
      dz2     :     0.000986  d :    -0.010585
      dxz     :    -0.004241
      dyz     :    -0.004245
      dx2y2   :    -0.001547
      dxy     :    -0.001538
      f0      :    -0.000186  f :    -0.000136
      f+1     :     0.000080
      f-1     :     0.000080
      f+2     :    -0.000209
      f-2     :    -0.000207
      f+3     :     0.000306
      f-3     :     0.000000
  1 H s       :    -0.000426  s :    -0.000426
      pz      :     0.052986  p :     0.054925
      px      :     0.002943
      py      :    -0.001004
  2 H s       :    -0.000434  s :    -0.000434
      pz      :     0.052986  p :     0.054931
      px      :    -0.000020
      py      :     0.001965
  3 H s       :    -0.000434  s :    -0.000434
      pz      :     0.052986  p :     0.054931
      px      :    -0.000020
      py      :     0.001965


                      *****************************
                      * MAYER POPULATION ANALYSIS *
                      *****************************

  NA   - Mulliken gross atomic population
  ZA   - Total nuclear charge
  QA   - Mulliken gross atomic charge
  VA   - Mayer's total valence
  BVA  - Mayer's bonded valence
  FA   - Mayer's free valence

  ATOM       NA         ZA         QA         VA         BVA        FA
  0 C      6.6920     6.0000    -0.6920     3.8320     3.0593     0.7726
  1 H      0.7696     1.0000     0.2304     1.0068     1.0054     0.0014
  2 H      0.7692     1.0000     0.2308     1.0063     1.0049     0.0014
  3 H      0.7692     1.0000     0.2308     1.0064     1.0049     0.0014

  Mayer bond orders larger than 0.100000
B(  0-C ,  1-H ) :   1.0200 B(  0-C ,  2-H ) :   1.0196 B(  0-C ,  3-H ) :   1.0196 


-------
TIMINGS
-------

Total SCF time: 0 days 0 hours 0 min 17 sec 

Total time                  ....      17.629 sec
Sum of individual times     ....      15.561 sec  ( 88.3%)

Fock matrix formation       ....      12.425 sec  ( 70.5%)
  Split-RI-J                ....       1.131 sec  (  9.1% of F)
  Chain of spheres X        ....       1.488 sec  ( 12.0% of F)
  XC integration            ....       2.476 sec  ( 19.9% of F)
    Basis function eval.    ....       0.052 sec  (  2.1% of XC)
    Density eval.           ....       0.065 sec  (  2.6% of XC)
    XC-Functional eval.     ....       0.077 sec  (  3.1% of XC)
    XC-Potential eval.      ....       0.074 sec  (  3.0% of XC)
Diagonalization             ....       0.277 sec  (  1.6%)
Density matrix formation    ....       0.012 sec  (  0.1%)
Population analysis         ....       0.440 sec  (  2.5%)
Initial guess               ....       0.212 sec  (  1.2%)
Orbital Transformation      ....       0.000 sec  (  0.0%)
Orbital Orthonormalization  ....       0.000 sec  (  0.0%)
DIIS solution               ....       1.343 sec  (  7.6%)
Grid generation             ....       0.852 sec  (  4.8%)

Maximum memory used throughout the entire SCF-calculation: 58.5 MB


-------------------------------------------------------------------------------
                          DFT DISPERSION CORRECTION                            
                                                                               
                              DFTD3 V3.1  Rev 1                                
                              USING zero damping                               
-------------------------------------------------------------------------------
The omegaB97X-D3 functional is recognized. Fit by Chai et al.
Active option DFTDOPT                   ...         3   

molecular C6(AA) [au] = 106.957291 


            DFT-D V3
 parameters
 s6 scaling factor         :     1.0000 
 rs6 scaling factor        :     1.2810 
 s8 scaling factor         :     1.0000 
 rs8 scaling factor        :     1.0940 
 Damping factor alpha6     :    14.0000 
 Damping factor alpha8     :    16.0000 
 ad hoc parameters k1-k3   :    16.0000     1.3333    -4.0000 

 Edisp/kcal,au: -0.004038975811  -0.000006436517 
 E6   /kcal   :  -0.000627879 
 E8   /kcal   :  -0.003411097 
 % E8         :  84.454501583 

-------------------------   ----------------
Dispersion correction           -0.000006437
-------------------------   ----------------


-------------------------   --------------------
FINAL SINGLE POINT ENERGY       -39.804053353467
-------------------------   --------------------



           ************************************************************
           *        Program running with 18 parallel MPI-processes    *
           *              working on a common directory               *
           ************************************************************
------------------------------------------------------------------------------
                         ORCA SCF GRADIENT CALCULATION
------------------------------------------------------------------------------

 ... reading COSX grid (gridx3)
Gradient of the Kohn-Sham DFT energy:
Kohn-Sham wavefunction type      ... UKS
Hartree-Fock exchange scaling    ...    0.196
Number of operators              ...    2
Number of atoms                  ...    4
Basis set dimensions             ...   64
Integral neglect threshold       ... 2.5e-11
Integral primitive cutoff        ... 2.5e-12
SHARK Integral package           ... ON

Nuc. rep. gradient       (SHARK) ... done (  0.0 sec)
HCore & Overlap gradient (SHARK) ... done (  0.0 sec)
RI-J gradient            (SHARK) ... done (  0.2 sec)
COSX-gradient                    ... done (  0.1 sec)
Exchange-correlation gradient    ... done
Dispersion correction            ... done

------------------
CARTESIAN GRADIENT
------------------

WARNING: THERE ARE 3 CONSTRAINED CARTESIAN COORDINATES
   1   C   :   -0.000083789   -0.000000042    0.069357872
   2   H   :   -0.027287055    0.000000004   -0.023157308
   3   H   :    0.013649878   -0.023572680   -0.023089766
   4   H   :    0.013649889    0.023572686   -0.023089758

Difference to translation invariance:
           :   -0.0000710778   -0.0000000319    0.0000210398

Difference to rotation invariance:
           :   -0.0000000021    0.0001080201    0.0000000195

Norm of the cartesian gradient     ...    0.0929603207
RMS gradient                       ...    0.0268353331
MAX gradient                       ...    0.0693578715

-------
TIMINGS
-------

Total SCF gradient time            ...        0.800 sec

One electron gradient       ....       0.006 sec  (  0.8%)
RI-J Coulomb gradient       ....       0.156 sec  ( 19.5%)
COSX gradient               ....       0.129 sec  ( 16.2%)
XC gradient                 ....       0.076 sec  (  9.5%)

Maximum memory used throughout the entire SCFGRAD-calculation: 33.6 MB
------------------------------------------------------------------------------
                         ORCA GEOMETRY RELAXATION STEP
------------------------------------------------------------------------------

Reading the OPT-File                    .... done
Getting information on internals        .... done
Copying old internal coords+grads       .... done
Making the new internal coordinates     .... (new redundants).... done
Validating the new internal coordinates .... (new redundants).... done
Calculating the B-matrix                .... done
Calculating the G,G- and P matrices     .... done
Transforming gradient to internals      .... done
Projecting the internal gradient        .... done
Number of atoms                         ....   4
Number of internal coordinates          ....   7
Current Energy                          ....   -39.804053353 Eh
Current gradient norm                   ....     0.092960321 Eh/bohr
Maximum allowed component of the step   ....  0.300
Current trust radius                    ....  0.300
Evaluating the initial hessian          ....  (Almloef) done
Projecting the Hessian                  .... done
Forming the augmented Hessian           .... done
Diagonalizing the augmented Hessian     .... done
Last element of RFO vector              ....  0.998298761
Lowest eigenvalues of augmented Hessian:
 -0.001278693  0.373574723  0.373574723  0.374853416 1000.000000000
Length of the computed step             ....  0.058405314
The final length of the internal step   ....  0.058405314
Converting the step to cartesian space:
 Initial RMS(Int)=    0.0220751339
Transforming coordinates:
 Iter   0:  RMS(Cart)=    0.0153038335 RMS(Int)=    0.0220751339
 Iter   1:  RMS(Cart)=    0.0000000000 RMS(Int)=    0.0000000000
Imposing constraints:
 Iter   0:  RMS(Cart)=    0.0000000011 RMS(Int)=    0.0000000016
CONVERGED
done
Storing new coordinates                 .... done

                                .--------------------.
          ----------------------|Geometry convergence|-------------------------
          Item                value                   Tolerance       Converged
          ---------------------------------------------------------------------
          RMS gradient        0.0082749393            0.0001000000      NO
          MAX gradient        0.0126417508            0.0003000000      NO
          RMS step            0.0220751339            0.0020000000      NO
          MAX step            0.0337245182            0.0040000000      NO
          ........................................................
          Max(Bonds)      0.0178      Max(Angles)    0.00
          Max(Dihed)        0.00      Max(Improp)    0.00
          ---------------------------------------------------------------------

The optimization has not yet converged - more geometry cycles are needed


    ---------------------------------------------------------------------------
                         Redundant Internal Coordinates
                            (Angstroem and degrees)

        Definition                    Value    dE/dq     Step     New-Value
    ----------------------------------------------------------------------------
     1. B(H   1,C   0)                1.0800 -0.012637  0.0178    1.0978   
     2. B(H   2,C   0)                1.0800 -0.012642  0.0178    1.0978   
     3. B(H   3,C   0)                1.0800 -0.012642  0.0178    1.0978   
     4. A(H   2,C   0,H   3)           98.50 -0.047536    0.00     98.50 C 
     5. A(H   1,C   0,H   2)           98.50 -0.021776    0.00     98.50 C 
     6. A(H   1,C   0,H   3)           98.50 -0.021776    0.00     98.50 C 
     7. I(H   1,H   3,H   2,C   0)     76.91  0.040287    0.00     76.91   
    ----------------------------------------------------------------------------

         *************************************************************
         *                GEOMETRY OPTIMIZATION CYCLE   2            *
         *************************************************************
---------------------------------
CARTESIAN COORDINATES (ANGSTROEM)
---------------------------------
  C      0.000002    0.000000    0.006485
  H      0.960348    0.000000   -0.525480
  H     -0.480175    0.831690   -0.525482
  H     -0.480175   -0.831690   -0.525482

----------------------------
CARTESIAN COORDINATES (A.U.)
----------------------------
  NO LB      ZA    FRAG     MASS         X           Y           Z
   0 C     6.0000    0    12.011    0.000004    0.000000    0.012255
   1 H     1.0000    0     1.008    1.814795    0.000000   -0.993014
   2 H     1.0000    0     1.008   -0.907399    1.571666   -0.993016
   3 H     1.0000    0     1.008   -0.907399   -1.571666   -0.993016

--------------------------------
INTERNAL COORDINATES (ANGSTROEM)
--------------------------------
 C      0   0   0     0.000000000000     0.00000000     0.00000000
 H      1   0   0     1.097839628461     0.00000000     0.00000000
 H      1   2   0     1.097846205071    98.49999993     0.00000000
 H      1   2   3     1.097846246344    98.49999993    99.98826212

---------------------------
INTERNAL COORDINATES (A.U.)
---------------------------
 C      0   0   0     0.000000000000     0.00000000     0.00000000
 H      1   0   0     2.074616236756     0.00000000     0.00000000
 H      1   2   0     2.074628664750    98.49999993     0.00000000
 H      1   2   3     2.074628742744    98.49999993    99.98826212



           ************************************************************
           *        Program running with 18 parallel MPI-processes    *
           *              working on a common directory               *
           ************************************************************
------------------------------------------------------------------------------
                   ___                                                        
                  /   \      - P O W E R E D   B Y -                         
                 /     \                                                     
                 |  |  |   _    _      __       _____    __    __             
                 |  |  |  | |  | |    /  \     |  _  \  |  |  /  |          
                  \  \/   | |  | |   /    \    | | | |  |  | /  /          
                 / \  \   | |__| |  /  /\  \   | |_| |  |  |/  /          
                |  |  |   |  __  | /  /__\  \  |    /   |      \           
                |  |  |   | |  | | |   __   |  |    \   |  |\   \          
                \     /   | |  | | |  |  |  |  | |\  \  |  | \   \       
                 \___/    |_|  |_| |__|  |__|  |_| \__\ |__|  \__/        
                                                                              
                      - O R C A' S   B I G   F R I E N D -                    
                                      &                                       
                       - I N T E G R A L  F E E D E R -                       
                                                                              
 v1 FN, 2020, v2 2021                                                         
------------------------------------------------------------------------------


Reading SHARK input file /beegfs/scratch/ispackman/PFAS_EPR_calcs/benchmark/JChemEd_CF3_radical/CH3_radical_98.5_degrees_IN-PROGRESS/CH3_radical_98.5_degrees.SHARKINP.tmp ... ok
----------------------
SHARK INTEGRAL PACKAGE
----------------------

Number of atoms                             ...      4
Number of basis functions                   ...     64
Number of shells                            ...     28
Maximum angular momentum                    ...      3
Integral batch strategy                     ... SHARK/LIBINT Hybrid
RI-J (if used) integral strategy            ... SPLIT-RIJ (Revised 2003 algorithm where possible)
Printlevel                                  ...      1
Contraction scheme used                     ... SEGMENTED contraction
Coulomb Range Separation                    ... NOT USED
Exchange Range Separation                   ... Long Range
   Mu parameter                             ...  0.250000
   Scaling (regular/separated)              ...  0.195728  0.804272
Finite Nucleus Model                        ... NOT USED
Auxiliary Coulomb fitting basis             ... AVAILABLE
   # of basis functions in Aux-J            ...     82
   # of shells in Aux-J                     ...     30
   Maximum angular momentum in Aux-J        ...      4
Auxiliary J/K fitting basis                 ... NOT available
Auxiliary Correlation fitting basis         ... NOT available
Auxiliary 'external' fitting basis          ... NOT available
Integral threshold                          ...     2.500000e-11
Primitive cut-off                           ...     2.500000e-12
Primitive pair pre-selection threshold      ...     2.500000e-12

Calculating pre-screening integrals         ... done (  0.0 sec) Dimension = 28
Organizing shell pair data                  ... done (  0.0 sec)
Shell pair information
Total number of shell pairs                 ...       406
Shell pairs after pre-screening             ...       406
Total number of primitive shell pairs       ...       977
Primitive shell pairs kept                  ...       947
          la=0 lb=0:    120 shell pairs
          la=1 lb=0:    135 shell pairs
          la=1 lb=1:     45 shell pairs
          la=2 lb=0:     45 shell pairs
          la=2 lb=1:     27 shell pairs
          la=2 lb=2:      6 shell pairs
          la=3 lb=0:     15 shell pairs
          la=3 lb=1:      9 shell pairs
          la=3 lb=2:      3 shell pairs
          la=3 lb=3:      1 shell pairs

Calculating one electron integrals          ... done (  0.0 sec)
Calculating RI/J V-Matrix + Cholesky decomp.... done (  0.2 sec)
Calculating Nuclear repulsion               ... done (  0.0 sec) ENN=      9.630671813526 Eh

SHARK setup successfully completed in   0.6 seconds

Maximum memory used throughout the entire GTOINT-calculation: 14.0 MB


           ************************************************************
           *        Program running with 18 parallel MPI-processes    *
           *              working on a common directory               *
           ************************************************************

Diagonalization of the overlap matrix:
Smallest eigenvalue                        ... 4.274e-05
Time for diagonalization                   ...    0.002 sec
Threshold for overlap eigenvalues          ... 1.000e-08
Number of eigenvalues below threshold      ... 0
Time for construction of square roots      ...    0.094 sec
Total time needed                          ...    0.097 sec

-------------------
DFT GRID GENERATION
-------------------

General Integration Accuracy     IntAcc      ... 4.388
Radial Grid Type                 RadialGrid  ... OptM3 with GC (2021)
Angular Grid (max. ang.)         AngularGrid ... 4 (Lebedev-302)
Angular grid pruning method      GridPruning ... 4 (adaptive)
Weight generation scheme         WeightScheme... Becke
Basis function cutoff            BFCut       ... 1.0000e-11
Integration weight cutoff        WCut        ... 1.0000e-14
Angular grids for H and He will be reduced by one unit
Partially contracted basis set               ... off
Rotationally invariant grid construction     ... off

Total number of grid points                  ...    17040
Total number of batches                      ...      269
Average number of points per batch           ...       63
Average number of grid points per atom       ...     4260
Time for grid setup =    0.189 sec

--------------------
COSX GRID GENERATION
--------------------

GRIDX 1
-------
General Integration Accuracy     IntAcc      ... 3.816
Radial Grid Type                 RadialGrid  ... OptM3 with GC (2021)
Angular Grid (max. ang.)         AngularGrid ... 1 (Lebedev-50)
Angular grid pruning method      GridPruning ... 4 (adaptive)
Weight generation scheme         WeightScheme... Becke
Basis function cutoff            BFCut       ... 1.0000e-11
Integration weight cutoff        WCut        ... 1.0000e-14
Angular grids for H and He will be reduced by one unit
Partially contracted basis set               ... on
Rotationally invariant grid construction     ... off

Total number of grid points                  ...     2145
Total number of batches                      ...       36
Average number of points per batch           ...       59
Average number of grid points per atom       ...      536
UseSFitting                                  ... on

GRIDX 2
-------
General Integration Accuracy     IntAcc      ... 4.020
Radial Grid Type                 RadialGrid  ... OptM3 with GC (2021)
Angular Grid (max. ang.)         AngularGrid ... 2 (Lebedev-110)
Angular grid pruning method      GridPruning ... 4 (adaptive)
Weight generation scheme         WeightScheme... Becke
Basis function cutoff            BFCut       ... 1.0000e-11
Integration weight cutoff        WCut        ... 1.0000e-14
Angular grids for H and He will be reduced by one unit
Partially contracted basis set               ... on
Rotationally invariant grid construction     ... off

Total number of grid points                  ...     5050
Total number of batches                      ...       81
Average number of points per batch           ...       62
Average number of grid points per atom       ...     1262
UseSFitting                                  ... on

GRIDX 3
-------
General Integration Accuracy     IntAcc      ... 4.338
Radial Grid Type                 RadialGrid  ... OptM3 with GC (2021)
Angular Grid (max. ang.)         AngularGrid ... 3 (Lebedev-194)
Angular grid pruning method      GridPruning ... 4 (adaptive)
Weight generation scheme         WeightScheme... Becke
Basis function cutoff            BFCut       ... 1.0000e-11
Integration weight cutoff        WCut        ... 1.0000e-14
Angular grids for H and He will be reduced by one unit
Partially contracted basis set               ... on
Rotationally invariant grid construction     ... off

Total number of grid points                  ...    11714
Total number of batches                      ...      186
Average number of points per batch           ...       62
Average number of grid points per atom       ...     2928
UseSFitting                                  ... on

Time for X-Grid setup             =    0.635 sec

--------------
SCF ITERATIONS
--------------
ITER       Energy         Delta-E        Max-DP      RMS-DP      [F,P]     Damp
               ***  Starting incremental Fock matrix formation  ***
  0    -39.8045140228   0.000000000000 0.01551630  0.00025615  0.0048960 0.7000
  1    -39.8045733879  -0.000059365126 0.01353259  0.00022382  0.0035838 0.7000
                               ***Turning on DIIS***
  2    -39.8046131141  -0.000039726186 0.03484231  0.00057689  0.0026060 0.0000
  3    -39.8047003840  -0.000087269902 0.00637042  0.00010914  0.0007281 0.0000
               *** Restarting incremental Fock matrix formation ***
                                   *** Resetting DIIS ***
  4    -39.8047045104  -0.000004126389 0.00076987  0.00002065  0.0003559 0.0000
  5    -39.8047051873  -0.000000676954 0.00048789  0.00000953  0.0002089 0.0000
  6    -39.8047054751  -0.000000287737 0.00018322  0.00000490  0.0000449 0.0000
  7    -39.8047054983  -0.000000023199 0.00007432  0.00000155  0.0000107 0.0000
                 **** Energy Check signals convergence ****

               *****************************************************
               *                     SUCCESS                       *
               *           SCF CONVERGED AFTER   8 CYCLES          *
               *****************************************************

Old exchange energy                            =     -2.168387567 Eh
New exchange energy                            =     -2.168390749 Eh
Exchange energy change after final integration =     -0.000003182 Eh
Total energy after final integration           =    -39.804708681 Eh
Final COS-X integration done in                =     0.124 sec
Total Energy       :          -39.80470868 Eh           -1083.14119 eV
  Last Energy change         ...   -1.0334e-09  Tolerance :   1.0000e-08
  Last MAX-Density change    ...    0.0000e+00  Tolerance :   1.0000e-07
             **** THE GBW FILE WAS UPDATED (/beegfs/scratch/ispackman/PFAS_EPR_calcs/benchmark/JChemEd_CF3_radical/CH3_radical_98.5_degrees_IN-PROGRESS/CH3_radical_98.5_degrees.gbw) ****
             **** DENSITY /beegfs/scratch/ispackman/PFAS_EPR_calcs/benchmark/JChemEd_CF3_radical/CH3_radical_98.5_degrees_IN-PROGRESS/CH3_radical_98.5_degrees.scfp WAS UPDATED ****
             **** ENERGY FILE WAS UPDATED (/beegfs/scratch/ispackman/PFAS_EPR_calcs/benchmark/JChemEd_CF3_radical/CH3_radical_98.5_degrees_IN-PROGRESS/CH3_radical_98.5_degrees.en.tmp) ****
----------------------
UHF SPIN CONTAMINATION
----------------------

Warning: in a DFT calculation there is little theoretical justification to 
         calculate <S**2> as in Hartree-Fock theory. We will do it anyways
         but you should keep in mind that the values have only limited relevance

Expectation value of <S**2>     :     0.753190
Ideal value S*(S+1) for S=0.5   :     0.750000
Deviation                       :     0.003190

             **** THE GBW FILE WAS UPDATED (/beegfs/scratch/ispackman/PFAS_EPR_calcs/benchmark/JChemEd_CF3_radical/CH3_radical_98.5_degrees_IN-PROGRESS/CH3_radical_98.5_degrees.gbw) ****
             **** DENSITY /beegfs/scratch/ispackman/PFAS_EPR_calcs/benchmark/JChemEd_CF3_radical/CH3_radical_98.5_degrees_IN-PROGRESS/CH3_radical_98.5_degrees.scfp WAS UPDATED ****
Total SCF time: 0 days 0 hours 0 min 13 sec 

Maximum memory used throughout the entire SCF-calculation: 58.5 MB


-------------------------------------------------------------------------------
                          DFT DISPERSION CORRECTION                            
                                                                               
                              DFTD3 V3.1  Rev 1                                
                              USING zero damping                               
-------------------------------------------------------------------------------
-------------------------   ----------------
Dispersion correction           -0.000007340
-------------------------   ----------------


-------------------------   --------------------
FINAL SINGLE POINT ENERGY       -39.804716021160
-------------------------   --------------------



           ************************************************************
           *        Program running with 18 parallel MPI-processes    *
           *              working on a common directory               *
           ************************************************************
------------------------------------------------------------------------------
                         ORCA SCF GRADIENT CALCULATION
------------------------------------------------------------------------------

 ... reading COSX grid (gridx3)
Gradient of the Kohn-Sham DFT energy:
Kohn-Sham wavefunction type      ... UKS
Hartree-Fock exchange scaling    ...    0.196
Number of operators              ...    2
Number of atoms                  ...    4
Basis set dimensions             ...   64
Integral neglect threshold       ... 2.5e-11
Integral primitive cutoff        ... 2.5e-12
SHARK Integral package           ... ON

Nuc. rep. gradient       (SHARK) ... done (  0.0 sec)
HCore & Overlap gradient (SHARK) ... done (  0.0 sec)
RI-J gradient            (SHARK) ... done (  0.2 sec)
COSX-gradient                    ... done (  0.1 sec)
Exchange-correlation gradient    ... done
Dispersion correction            ... done

------------------
CARTESIAN GRADIENT
------------------

WARNING: THERE ARE 3 CONSTRAINED CARTESIAN COORDINATES
   1   C   :   -0.000097043    0.000000012    0.083563095
   2   H   :   -0.016190418    0.000000004   -0.027890141
   3   H   :    0.008106793   -0.013970169   -0.027828722
   4   H   :    0.008106779    0.013970140   -0.027828745

Difference to translation invariance:
           :   -0.0000738899   -0.0000000130    0.0000154862

Difference to rotation invariance:
           :    0.0000000142    0.0000868016    0.0000000128

Norm of the cartesian gradient     ...    0.1004660990
RMS gradient                       ...    0.0290020647
MAX gradient                       ...    0.0835630947

-------
TIMINGS
-------

Total SCF gradient time            ...        0.767 sec

One electron gradient       ....       0.007 sec  (  0.9%)
RI-J Coulomb gradient       ....       0.155 sec  ( 20.2%)
COSX gradient               ....       0.125 sec  ( 16.3%)
XC gradient                 ....       0.073 sec  (  9.5%)

Maximum memory used throughout the entire SCFGRAD-calculation: 33.6 MB
------------------------------------------------------------------------------
                         ORCA GEOMETRY RELAXATION STEP
------------------------------------------------------------------------------

Reading the OPT-File                    .... done
Getting information on internals        .... done
Copying old internal coords+grads       .... done
Making the new internal coordinates     .... (new redundants).... done
Validating the new internal coordinates .... (new redundants).... done
Calculating the B-matrix                .... done
Calculating the G,G- and P matrices     .... done
Transforming gradient to internals      .... done
Projecting the internal gradient        .... done
Number of atoms                         ....   4
Number of internal coordinates          ....   7
Current Energy                          ....   -39.804716021 Eh
Current gradient norm                   ....     0.100466099 Eh/bohr
Maximum allowed component of the step   ....  0.300
Current trust radius                    ....  0.300
Updating the Hessian (BFGS)             .... done
Forming the augmented Hessian           .... done
Diagonalizing the augmented Hessian     .... done
Last element of RFO vector              ....  0.999995085
Lowest eigenvalues of augmented Hessian:
 -0.000003497  0.355758406  0.373574723  0.373577170 999.999999986
Length of the computed step             ....  0.003135222
The final length of the internal step   ....  0.003135222
Converting the step to cartesian space:
 Initial RMS(Int)=    0.0011850026
Transforming coordinates:
 Iter   0:  RMS(Cart)=    0.0008215030 RMS(Int)=    0.0011850026
 Iter   1:  RMS(Cart)=    0.0000000000 RMS(Int)=    0.0000000001
Imposing constraints:
 Iter   0:  RMS(Cart)=    0.0000000004 RMS(Int)=    0.0000000009
CONVERGED
done
Storing new coordinates                 .... done

                                .--------------------.
          ----------------------|Geometry convergence|-------------------------
          Item                value                   Tolerance       Converged
          ---------------------------------------------------------------------
          Energy change      -0.0006626677            0.0000050000      NO
          RMS gradient        0.0004215746            0.0001000000      NO
          MAX gradient        0.0006488813            0.0003000000      NO
          RMS step            0.0011850026            0.0020000000      YES
          MAX step            0.0018239840            0.0040000000      YES
          ........................................................
          Max(Bonds)      0.0010      Max(Angles)    0.00
          Max(Dihed)        0.00      Max(Improp)    0.00
          ---------------------------------------------------------------------

The optimization has not yet converged - more geometry cycles are needed


    ---------------------------------------------------------------------------
                         Redundant Internal Coordinates
                            (Angstroem and degrees)

        Definition                    Value    dE/dq     Step     New-Value
    ----------------------------------------------------------------------------
     1. B(H   1,C   0)                1.0978 -0.000634  0.0009    1.0988   
     2. B(H   2,C   0)                1.0978 -0.000649  0.0010    1.0988   
     3. B(H   3,C   0)                1.0978 -0.000649  0.0010    1.0988   
     4. A(H   2,C   0,H   3)           98.50 -0.046536   -0.00     98.50 C 
     5. A(H   1,C   0,H   2)           98.50 -0.021322   -0.00     98.50 C 
     6. A(H   1,C   0,H   3)           98.50 -0.021322   -0.00     98.50 C 
     7. I(H   1,H   3,H   2,C   0)     76.91  0.039445    0.00     76.91   
    ----------------------------------------------------------------------------

         *************************************************************
         *                GEOMETRY OPTIMIZATION CYCLE   3            *
         *************************************************************
---------------------------------
CARTESIAN COORDINATES (ANGSTROEM)
---------------------------------
  C      0.000009   -0.000000    0.006833
  H      0.961177   -0.000000   -0.525594
  H     -0.480593    0.832421   -0.525599
  H     -0.480593   -0.832421   -0.525599

----------------------------
CARTESIAN COORDINATES (A.U.)
----------------------------
  NO LB      ZA    FRAG     MASS         X           Y           Z
   0 C     6.0000    0    12.011    0.000017   -0.000000    0.012912
   1 H     1.0000    0     1.008    1.816362   -0.000000   -0.993229
   2 H     1.0000    0     1.008   -0.908189    1.573048   -0.993238
   3 H     1.0000    0     1.008   -0.908189   -1.573048   -0.993238

--------------------------------
INTERNAL COORDINATES (ANGSTROEM)
--------------------------------
 C      0   0   0     0.000000000000     0.00000000     0.00000000
 H      1   0   0     1.098782706098     0.00000000     0.00000000
 H      1   2   0     1.098811415817    98.49999988     0.00000000
 H      1   2   3     1.098811412740    98.49999988    99.98826209

---------------------------
INTERNAL COORDINATES (A.U.)
---------------------------
 C      0   0   0     0.000000000000     0.00000000     0.00000000
 H      1   0   0     2.076398395214     0.00000000     0.00000000
 H      1   2   0     2.076452648720    98.49999988     0.00000000
 H      1   2   3     2.076452642906    98.49999988    99.98826209



           ************************************************************
           *        Program running with 18 parallel MPI-processes    *
           *              working on a common directory               *
           ************************************************************
------------------------------------------------------------------------------
                   ___                                                        
                  /   \      - P O W E R E D   B Y -                         
                 /     \                                                     
                 |  |  |   _    _      __       _____    __    __             
                 |  |  |  | |  | |    /  \     |  _  \  |  |  /  |          
                  \  \/   | |  | |   /    \    | | | |  |  | /  /          
                 / \  \   | |__| |  /  /\  \   | |_| |  |  |/  /          
                |  |  |   |  __  | /  /__\  \  |    /   |      \           
                |  |  |   | |  | | |   __   |  |    \   |  |\   \          
                \     /   | |  | | |  |  |  |  | |\  \  |  | \   \       
[...]
  ZA   - Total nuclear charge
  QA   - Mulliken gross atomic charge
  VA   - Mayer's total valence
  BVA  - Mayer's bonded valence
  FA   - Mayer's free valence

  ATOM       NA         ZA         QA         VA         BVA        FA
  0 C      6.6630     6.0000    -0.6630     3.8417     3.0552     0.7865
  1 H      0.7793     1.0000     0.2207     1.0139     1.0128     0.0012
  2 H      0.7789     1.0000     0.2211     1.0133     1.0122     0.0011
  3 H      0.7789     1.0000     0.2211     1.0133     1.0122     0.0011

  Mayer bond orders larger than 0.100000
B(  0-C ,  1-H ) :   1.0188 B(  0-C ,  2-H ) :   1.0182 B(  0-C ,  3-H ) :   1.0182 


-------
TIMINGS
-------

Total SCF time: 0 days 0 hours 0 min 9 sec 

Total time                  ....       9.183 sec
Sum of individual times     ....       7.492 sec  ( 81.6%)

Fock matrix formation       ....       5.871 sec  ( 63.9%)
  Split-RI-J                ....       0.632 sec  ( 10.8% of F)
  Chain of spheres X        ....       0.874 sec  ( 14.9% of F)
  XC integration            ....       1.144 sec  ( 19.5% of F)
    Basis function eval.    ....       0.026 sec  (  2.3% of XC)
    Density eval.           ....       0.032 sec  (  2.8% of XC)
    XC-Functional eval.     ....       0.035 sec  (  3.1% of XC)
    XC-Potential eval.      ....       0.031 sec  (  2.7% of XC)
Diagonalization             ....       0.144 sec  (  1.6%)
Density matrix formation    ....       0.010 sec  (  0.1%)
Population analysis         ....       0.353 sec  (  3.8%)
Initial guess               ....       0.008 sec  (  0.1%)
Orbital Transformation      ....       0.000 sec  (  0.0%)
Orbital Orthonormalization  ....       0.002 sec  (  0.0%)
DIIS solution               ....       0.368 sec  (  4.0%)
Grid generation             ....       0.738 sec  (  8.0%)

Maximum memory used throughout the entire SCF-calculation: 58.5 MB


-------------------------------------------------------------------------------
                          DFT DISPERSION CORRECTION                            
                                                                               
                              DFTD3 V3.1  Rev 1                                
                              USING zero damping                               
-------------------------------------------------------------------------------
The omegaB97X-D3 functional is recognized. Fit by Chai et al.
Active option DFTDOPT                   ...         3   

molecular C6(AA) [au] = 107.006260 


            DFT-D V3
 parameters
 s6 scaling factor         :     1.0000 
 rs6 scaling factor        :     1.2810 
 s8 scaling factor         :     1.0000 
 rs8 scaling factor        :     1.0940 
 Damping factor alpha6     :    14.0000 
 Damping factor alpha8     :    16.0000 
 ad hoc parameters k1-k3   :    16.0000     1.3333    -4.0000 

 Edisp/kcal,au: -0.004640142480  -0.000007394537 
 E6   /kcal   :  -0.000721393 
 E8   /kcal   :  -0.003918750 
 % E8         :  84.453215961 

-------------------------   ----------------
Dispersion correction           -0.000007395
-------------------------   ----------------


-------------------------   --------------------
FINAL SINGLE POINT ENERGY       -39.804717901276
-------------------------   --------------------

                                *** OPTIMIZATION RUN DONE ***

                            ***************************************
                            *     ORCA property calculations      *
                            ***************************************

                                    ---------------------
                                    Active property flags
                                    ---------------------
   (+) Dipole Moment


------------------------------------------------------------------------------
                       ORCA ELECTRIC PROPERTIES CALCULATION
------------------------------------------------------------------------------

Dipole Moment Calculation                       ... on
Quadrupole Moment Calculation                   ... off
Polarizability Calculation                      ... off
GBWName                                         ... /beegfs/scratch/ispackman/PFAS_EPR_calcs/benchmark/JChemEd_CF3_radical/CH3_radical_98.5_degrees_IN-PROGRESS/CH3_radical_98.5_degrees.gbw
Electron density                                ... /beegfs/scratch/ispackman/PFAS_EPR_calcs/benchmark/JChemEd_CF3_radical/CH3_radical_98.5_degrees_IN-PROGRESS/CH3_radical_98.5_degrees.scfp
The origin for moment calculation is the CENTER OF MASS  = ( 0.000013,  0.000000 -0.189429)

-------------
DIPOLE MOMENT
-------------
                                X             Y             Z
Electronic contribution:      0.00004      -0.00000       0.88927
Nuclear contribution   :     -0.00003      -0.00000      -1.19719
                        -----------------------------------------
Total Dipole Moment    :      0.00001      -0.00000      -0.30792
                        -----------------------------------------
Magnitude (a.u.)       :      0.30792
Magnitude (Debye)      :      0.78267



--------------------
Rotational spectrum 
--------------------
 
Rotational constants in cm-1:     8.097204     8.096997     6.033334 
Rotational constants in MHz : 242748.072974 242741.875761 180874.814248 

 Dipole components along the rotational axes: 
x,y,z [a.u.] :     0.000000     0.000003    -0.307919 
x,y,z [Debye]:     0.000000     0.000009    -0.782667 

 


           ************************************************************
           *        Program running with 18 parallel MPI-processes    *
           *              working on a common directory               *
           ************************************************************

-------------------------------------------------------------------------------
                               ORCA SCF HESSIAN
-------------------------------------------------------------------------------

                   --------- SHARK INITIALIZATION DONE ---------

Hessian of the Kohn-Sham DFT energy:
Kohn-Sham wavefunction type                      ... UKS
Hartree-Fock exchange scaling                    ...    0.196
Number of operators                              ...    2
Number of atoms                                  ...    4
Basis set dimensions                             ...   64
Integral neglect threshold                       ... 2.5e-11
Integral primitive cutoff                        ... 2.5e-12

Setting up DFT Hessian calculations              ... 

HESS GRID
---------

General Integration Accuracy     IntAcc      ... 4.629
Radial Grid Type                 RadialGrid  ... OptM3 with GC (2021)
Angular Grid (max. ang.)         AngularGrid ... 5 (Lebedev-434)
Angular grid pruning method      GridPruning ... 4 (adaptive)
Weight generation scheme         WeightScheme... Becke
Basis function cutoff            BFCut       ... 1.0000e-11
Integration weight cutoff        WCut        ... 1.0000e-14
Angular grids for H and He will be reduced by one unit
Partially contracted basis set               ... off
Rotationally invariant grid construction     ... off

Total number of grid points                  ...    27262
Total number of batches                      ...      429
Average number of points per batch           ...       63
Average number of grid points per atom       ...     6816

Building densities                               ... done   (      0.0 sec)
Calculating rho(r) on the grid                   ... done   (      0.1 sec)
Building xc-kernel on the grid                   ... done   (      0.1 sec)
                                                     done   (      0.5 sec)

Nuclear repulsion Hessian  (SHARK)               ... done   (      0.0 sec)

----------------------------------------------
Forming right-hand sides of CP-SCF equations     ...
----------------------------------------------
One electron integral derivatives  (SHARK)       ... done   (      0.0 sec)
Transforming the overlap derivative matrices     ... done   (      0.0 sec)
Making the Q(x) pseudodensities                  ... done   (      0.0 sec)
Adding the E*S(x)*S(y) terms to the Hessian      ... done   (      0.0 sec)
Calculating energy weighted overlap derivatives  ... done   (      0.1 sec)
Two electron integral derivatives (SHARK-RI)     ... done   (      0.6 sec)
Exchange-correlation integral derivatives        ... done   (      0.4 sec)
tr(F(y)Q(x)) contribution to the Hessian         ... done   (      0.0 sec)
Response fock operator R(S(x)) (SHARK-RIJCOSX)   ... done   (      0.6 sec)
XC Response fock operator R(S(x))                ... done   (      0.1 sec)
tr(F(y)S(x)) contribution to the Hessian         ... done   (      0.0 sec)
Transforming and finalizing RHSs                 ... done   (      0.0 sec)

----------------------------------------------
Solving the CP-SCF equations (RIJCOSX)           ...
----------------------------------------------
     CP-SCF ITERATION   0:   1.2951e-01 (   0.4 sec   0/ 12 done)
     CP-SCF ITERATION   1:   3.0856e-02 (   0.4 sec   0/ 12 done)
     CP-SCF ITERATION   2:   1.1337e-02 (   0.4 sec   0/ 12 done)
     CP-SCF ITERATION   3:   3.8600e-03 (   0.4 sec   0/ 12 done)
     CP-SCF ITERATION   4:   6.1533e-04 (   0.4 sec   1/ 12 done)
     CP-SCF ITERATION   5:   1.4214e-04 (   0.4 sec   5/ 12 done)
     CP-SCF ITERATION   6:   3.1058e-05 (   0.4 sec  12/ 12 done)
                    *** THE CP-SCF HAS CONVERGED ***

                                                 ... done   (      3.0 sec)
Forming perturbed density Hessian contributions  ... done   (      0.0 sec)
2nd integral derivative contribs (SHARK-RI)      ... done   (      0.9 sec)
Exchange-correlation Hessian                     ... done   (      0.3 sec)
Dispersion correction in the Hessian             ... done   (      0.1 sec)
Dipole derivatives                               ... (center of mass:  0.000013,  0.000000 -0.189429)done   (      0.2 sec)

Total SCF Hessian time: 0 days 0 hours 0 min 7 sec 

Writing the Hessian file to the disk             ... done


Maximum memory used throughout the entire SCFHESS-calculation: 109.4 MB

-----------------------
VIBRATIONAL FREQUENCIES
-----------------------

Scaling factor for frequencies =  1.000000000  (already applied!)

   0:         0.00 cm**-1
   1:         0.00 cm**-1
   2:         0.00 cm**-1
   3:         0.00 cm**-1
   4:         0.00 cm**-1
   5:         0.00 cm**-1
   6:      1339.52 cm**-1
   7:      1388.00 cm**-1
   8:      1389.58 cm**-1
   9:      3043.18 cm**-1
  10:      3070.90 cm**-1
  11:      3071.12 cm**-1


------------
NORMAL MODES
------------

These modes are the Cartesian displacements weighted by the diagonal matrix
M(i,i)=1/sqrt(m[i]) where m[i] is the mass of the displaced atom
Thus, these vectors are normalized but *not* orthogonal

                  0          1          2          3          4          5    
      0       0.000000   0.000000   0.000000   0.000000   0.000000   0.000000
      1       0.000000   0.000000   0.000000   0.000000   0.000000   0.000000
      2       0.000000   0.000000   0.000000   0.000000   0.000000   0.000000
      3       0.000000   0.000000   0.000000   0.000000   0.000000   0.000000
      4       0.000000   0.000000   0.000000   0.000000   0.000000   0.000000
      5       0.000000   0.000000   0.000000   0.000000   0.000000   0.000000
      6       0.000000   0.000000   0.000000   0.000000   0.000000   0.000000
      7       0.000000   0.000000   0.000000   0.000000   0.000000   0.000000
      8       0.000000   0.000000   0.000000   0.000000   0.000000   0.000000
      9       0.000000   0.000000   0.000000   0.000000   0.000000   0.000000
     10       0.000000   0.000000   0.000000   0.000000   0.000000   0.000000
     11       0.000000   0.000000   0.000000   0.000000   0.000000   0.000000
                  6          7          8          9         10         11    
      0      -0.001884   0.000003   0.070326   0.000678  -0.084549  -0.000031
      1      -0.000000  -0.070383   0.000003  -0.000001  -0.000031   0.084522
      2       0.127710  -0.000000   0.003087  -0.055938  -0.000448  -0.000001
      3      -0.270052   0.000009   0.167688  -0.537663   0.717275   0.000258
      4       0.000003   0.732965  -0.000036  -0.000000  -0.000018   0.050408
      5      -0.515558   0.000016   0.297201   0.225167  -0.370262  -0.000134
      6       0.146255   0.392628  -0.502856   0.264789   0.144971   0.334445
      7      -0.219044   0.052828  -0.398208  -0.457958  -0.337912  -0.528897
      8      -0.503100  -0.268214  -0.166977   0.220682   0.187685   0.322160
      9       0.146251  -0.392678  -0.502818   0.264793   0.145215  -0.334336
     10       0.219044   0.052865   0.398203   0.457965   0.338298  -0.528644
     11      -0.503098   0.268202  -0.167003   0.220686   0.187920  -0.322020


-----------
IR SPECTRUM
-----------

 Mode   freq       eps      Int      T**2         TX        TY        TZ
       cm**-1   L/(mol*cm) km/mol    a.u.
----------------------------------------------------------------------------
  6:   1339.52   0.001458    7.37  0.000340  ( 0.000471  0.000000 -0.018422)
  7:   1388.00   0.001004    5.07  0.000226  (-0.000001  0.015023  0.000000)
  8:   1389.58   0.001029    5.20  0.000231  (-0.015191 -0.000001 -0.000527)
  9:   3043.18   0.000016    0.08  0.000002  ( 0.000286 -0.000000 -0.001241)
 10:   3070.90   0.007711   38.97  0.000784  (-0.027993 -0.000010 -0.000065)
 11:   3071.12   0.007878   39.81  0.000800  (-0.000010  0.028292  0.000000)

* The epsilon (eps) is given for a Dirac delta lineshape.
** The dipole moment derivative (T) already includes vibrational overlap.

The first frequency considered to be a vibration is 6
The total number of vibrations considered is 6


--------------------------
THERMOCHEMISTRY AT 298.15K
--------------------------

Temperature         ... 298.15 K
Pressure            ... 1.00 atm
Total Mass          ... 15.03 AMU

Throughout the following assumptions are being made:
  (1) The electronic state is orbitally nondegenerate
      but the spin degeneracy is treated
  (2) There are no thermally accessible electronically excited states
  (3) Hindered rotations indicated by low frequency modes are not
      treated as such but are treated as vibrations and this may
      cause some error
  (4) All equations used are the standard statistical mechanics
      equations for an ideal gas
  (5) All vibrations are strictly harmonic

freq.    1339.52  E(vib)   ...       0.01 
freq.    1388.00  E(vib)   ...       0.00 
freq.    1389.58  E(vib)   ...       0.00 
freq.    3043.18  E(vib)   ...       0.00 
freq.    3070.90  E(vib)   ...       0.00 
freq.    3071.12  E(vib)   ...       0.00 

------------
INNER ENERGY
------------

The inner energy is: U= E(el) + E(ZPE) + E(vib) + E(rot) + E(trans)
    E(el)   - is the total energy from the electronic structure calculation
              = E(kin-el) + E(nuc-el) + E(el-el) + E(nuc-nuc)
    E(ZPE)  - the the zero temperature vibrational energy from the frequency calculation
    E(vib)  - the the finite temperature correction to E(ZPE) due to population
              of excited vibrational states
    E(rot)  - is the rotational thermal energy
    E(trans)- is the translational thermal energy

Summary of contributions to the inner energy U:
Electronic energy                ...    -39.80471790 Eh
Zero point energy                ...      0.03030488 Eh      19.02 kcal/mol
Thermal vibrational correction   ...      0.00002511 Eh       0.02 kcal/mol
Thermal rotational correction    ...      0.00141627 Eh       0.89 kcal/mol
Thermal translational correction ...      0.00141627 Eh       0.89 kcal/mol
-----------------------------------------------------------------------
Total thermal energy                    -39.77155537 Eh


Summary of corrections to the electronic energy:
(perhaps to be used in another calculation)
Total thermal correction                  0.00285766 Eh       1.79 kcal/mol
Non-thermal (ZPE) correction              0.03030488 Eh      19.02 kcal/mol
-----------------------------------------------------------------------
Total correction                          0.03316254 Eh      20.81 kcal/mol


--------
ENTHALPY
--------

The enthalpy is H = U + kB*T
                kB is Boltzmann's constant
Total free energy                 ...    -39.77155537 Eh 
Thermal Enthalpy correction       ...      0.00094421 Eh       0.59 kcal/mol
-----------------------------------------------------------------------
Total Enthalpy                    ...    -39.77061116 Eh


Note: Rotational entropy computed according to Herzberg 
Infrared and Raman Spectra, Chapter V,1, Van Nostrand Reinhold, 1945 
Point Group:  C3v, Symmetry Number:   3  
Rotational constants in cm-1:     8.097204     8.096997     6.033334 

Vibrational entropy computed according to the QRRHO of S. Grimme
Chem.Eur.J. 2012 18 9955


-------
ENTROPY
-------

The entropy contributions are T*S = T*(S(el)+S(vib)+S(rot)+S(trans))
     S(el)   - electronic entropy
     S(vib)  - vibrational entropy
     S(rot)  - rotational entropy
     S(trans)- translational entropy
The entropies will be listed as multiplied by the temperature to get
units of energy

Electronic entropy                ...      0.00065446 Eh      0.41 kcal/mol
Vibrational entropy               ...      0.00002892 Eh      0.02 kcal/mol
Rotational entropy                ...      0.00565027 Eh      3.55 kcal/mol
Translational entropy             ...      0.01618771 Eh     10.16 kcal/mol
-----------------------------------------------------------------------
Final entropy term                ...      0.02252135 Eh     14.13 kcal/mol

In case the symmetry of your molecule has not been determined correctly
or in case you have a reason to use a different symmetry number we print 
out the resulting rotational entropy values for sn=1,12 :
 --------------------------------------------------------
|  sn= 1 | S(rot)=       0.00668756 Eh      4.20 kcal/mol|
|  sn= 2 | S(rot)=       0.00603311 Eh      3.79 kcal/mol|
|  sn= 3 | S(rot)=       0.00565027 Eh      3.55 kcal/mol|
|  sn= 4 | S(rot)=       0.00537865 Eh      3.38 kcal/mol|
|  sn= 5 | S(rot)=       0.00516796 Eh      3.24 kcal/mol|
|  sn= 6 | S(rot)=       0.00499582 Eh      3.13 kcal/mol|
|  sn= 7 | S(rot)=       0.00485027 Eh      3.04 kcal/mol|
|  sn= 8 | S(rot)=       0.00472419 Eh      2.96 kcal/mol|
|  sn= 9 | S(rot)=       0.00461298 Eh      2.89 kcal/mol|
|  sn=10 | S(rot)=       0.00451350 Eh      2.83 kcal/mol|
|  sn=11 | S(rot)=       0.00442351 Eh      2.78 kcal/mol|
|  sn=12 | S(rot)=       0.00434136 Eh      2.72 kcal/mol|
 --------------------------------------------------------


-------------------
GIBBS FREE ENERGY
-------------------

The Gibbs free energy is G = H - T*S

Total enthalpy                    ...    -39.77061116 Eh 
Total entropy correction          ...     -0.02252135 Eh    -14.13 kcal/mol
-----------------------------------------------------------------------
Final Gibbs free energy         ...    -39.79313251 Eh

For completeness - the Gibbs free energy minus the electronic energy
G-E(el)                           ...      0.01158539 Eh      7.27 kcal/mol


Timings for individual modules:

Sum of individual times         ...       94.423 sec (=   1.574 min)
GTO integral calculation        ...       12.436 sec (=   0.207 min)  13.2 %
SCF iterations                  ...       61.520 sec (=   1.025 min)  65.2 %
SCF Gradient evaluation         ...        9.471 sec (=   0.158 min)  10.0 %
Geometry relaxation             ...        0.209 sec (=   0.003 min)   0.2 %
Analytical frequency calculation...       10.786 sec (=   0.180 min)  11.4 %
                             ****ORCA TERMINATED NORMALLY****
TOTAL RUN TIME: 0 days 0 hours 1 minutes 48 seconds 301 msec

slurmID:    32260139
totalRuntime[s]:    108.341029277
