
                                 *****************
                                 * O   R   C   A *
                                 *****************

                                            #,                                       
                                            ###                                      
                                            ####                                     
                                            #####                                    
                                            ######                                   
                                           ########,                                 
                                     ,,################,,,,,                         
                               ,,#################################,,                 
                          ,,##########################################,,             
                       ,#########################################, ''#####,          
                    ,#############################################,,   '####,        
                  ,##################################################,,,,####,       
                ,###########''''           ''''###############################       
              ,#####''   ,,,,##########,,,,          '''####'''          '####       
            ,##' ,,,,###########################,,,                        '##       
           ' ,,###''''                  '''############,,,                           
         ,,##''                                '''############,,,,        ,,,,,,###''
      ,#''                                            '''#######################'''  
     '                                                          ''''####''''         
             ,#######,   #######,   ,#######,      ##                                
            ,#'     '#,  ##    ##  ,#'     '#,    #''#        ######   ,####,        
            ##       ##  ##   ,#'  ##            #'  '#       #        #'  '#        
            ##       ##  #######   ##           ,######,      #####,   #    #        
            '#,     ,#'  ##    ##  '#,     ,#' ,#      #,         ##   #,  ,#        
             '#######'   ##     ##  '#######'  #'      '#     #####' # '####'        



                  #######################################################
                  #                        -***-                        #
                  #          Department of theory and spectroscopy      #
                  #    Directorship and core code : Frank Neese         #
                  #        Max Planck Institute fuer Kohlenforschung    #
                  #                Kaiser Wilhelm Platz 1               #
                  #                 D-45470 Muelheim/Ruhr               #
                  #                      Germany                        #
                  #                                                     #
                  #                  All rights reserved                #
                  #                        -***-                        #
                  #######################################################


                         Program Version 5.0.4 -  RELEASE  -


 With contributions from (in alphabetic order):
   Daniel Aravena         : Magnetic Suceptibility
   Michael Atanasov       : Ab Initio Ligand Field Theory (pilot matlab implementation)
   Alexander A. Auer      : GIAO ZORA, VPT2 properties, NMR spectrum
   Ute Becker             : Parallelization
   Giovanni Bistoni       : ED, misc. LED, open-shell LED, HFLD
   Martin Brehm           : Molecular dynamics
   Dmytro Bykov           : SCF Hessian
   Vijay G. Chilkuri      : MRCI spin determinant printing, contributions to CSF-ICE
   Dipayan Datta          : RHF DLPNO-CCSD density
   Achintya Kumar Dutta   : EOM-CC, STEOM-CC
   Dmitry Ganyushin       : Spin-Orbit,Spin-Spin,Magnetic field MRCI
   Miquel Garcia          : C-PCM and meta-GGA Hessian, CC/C-PCM, Gaussian charge scheme
   Yang Guo               : DLPNO-NEVPT2, F12-NEVPT2, CIM, IAO-localization
   Andreas Hansen         : Spin unrestricted coupled pair/coupled cluster methods
   Benjamin Helmich-Paris : MC-RPA, TRAH-SCF, COSX integrals
   Lee Huntington         : MR-EOM, pCC
   Robert Izsak           : Overlap fitted RIJCOSX, COSX-SCS-MP3, EOM
   Marcus Kettner         : VPT2
   Christian Kollmar      : KDIIS, OOCD, Brueckner-CCSD(T), CCSD density, CASPT2, CASPT2-K
   Simone Kossmann        : Meta GGA functionals, TD-DFT gradient, OOMP2, MP2 Hessian
   Martin Krupicka        : Initial AUTO-CI
   Lucas Lang             : DCDCAS
   Marvin Lechner         : AUTO-CI (C++ implementation), FIC-MRCC
   Dagmar Lenk            : GEPOL surface, SMD
   Dimitrios Liakos       : Extrapolation schemes; Compound Job, initial MDCI parallelization
   Dimitrios Manganas     : Further ROCIS development; embedding schemes
   Dimitrios Pantazis     : SARC Basis sets
   Anastasios Papadopoulos: AUTO-CI, single reference methods and gradients
   Taras Petrenko         : DFT Hessian,TD-DFT gradient, ASA, ECA, R-Raman, ABS, FL, XAS/XES, NRVS
   Peter Pinski           : DLPNO-MP2, DLPNO-MP2 Gradient
   Christoph Reimann      : Effective Core Potentials
   Marius Retegan         : Local ZFS, SOC
   Christoph Riplinger    : Optimizer, TS searches, QM/MM, DLPNO-CCSD(T), (RO)-DLPNO pert. Triples
   Tobias Risthaus        : Range-separated hybrids, TD-DFT gradient, RPA, STAB
   Michael Roemelt        : Original ROCIS implementation
   Masaaki Saitow         : Open-shell DLPNO-CCSD energy and density
   Barbara Sandhoefer     : DKH picture change effects
   Avijit Sen             : IP-ROCIS
   Kantharuban Sivalingam : CASSCF convergence, NEVPT2, FIC-MRCI
   Bernardo de Souza      : ESD, SOC TD-DFT
   Georgi Stoychev        : AutoAux, RI-MP2 NMR, DLPNO-MP2 response
   Willem Van den Heuvel  : Paramagnetic NMR
   Boris Wezisla          : Elementary symmetry handling
   Frank Wennmohs         : Technical directorship


 We gratefully acknowledge several colleagues who have allowed us to
 interface, adapt or use parts of their codes:
   Stefan Grimme, W. Hujo, H. Kruse, P. Pracht,  : VdW corrections, initial TS optimization,
                  C. Bannwarth, S. Ehlert          DFT functionals, gCP, sTDA/sTD-DF
   Ed Valeev, F. Pavosevic, A. Kumar             : LibInt (2-el integral package), F12 methods
   Garnet Chan, S. Sharma, J. Yang, R. Olivares  : DMRG
   Ulf Ekstrom                                   : XCFun DFT Library
   Mihaly Kallay                                 : mrcc  (arbitrary order and MRCC methods)
   Jiri Pittner, Ondrej Demel                    : Mk-CCSD
   Frank Weinhold                                : gennbo (NPA and NBO analysis)
   Christopher J. Cramer and Donald G. Truhlar   : smd solvation model
   Lars Goerigk                                  : TD-DFT with DH, B97 family of functionals
   V. Asgeirsson, H. Jonsson                     : NEB implementation
   FAccTs GmbH                                   : IRC, NEB, NEB-TS, DLPNO-Multilevel, CI-OPT
                                                   MM, QMMM, 2- and 3-layer-ONIOM, Crystal-QMMM,
                                                   LR-CPCM, SF, NACMEs, symmetry and pop. for TD-DFT,
                                                   nearIR, NL-DFT gradient (VV10), updates on ESD,
                                                   ML-optimized integration grids
   S Lehtola, MJT Oliveira, MAL Marques          : LibXC Library
   Liviu Ungur et al                             : ANISO software


 Your calculation uses the libint2 library for the computation of 2-el integrals
 For citations please refer to: http://libint.valeyev.net

 Your ORCA version has been built with support for libXC version: 5.1.0
 For citations please refer to: https://tddft.org/programs/libxc/

 This ORCA versions uses:
   CBLAS   interface :  Fast vector & matrix operations
   LAPACKE interface :  Fast linear algebra routines
   SCALAPACK package :  Parallel linear algebra routines
   Shared memory     :  Shared parallel matrices
   BLAS/LAPACK       :  OpenBLAS 0.3.15  USE64BITINT DYNAMIC_ARCH NO_AFFINITY SkylakeX SINGLE_THREADED
        Core in use  :  SkylakeX
   Copyright (c) 2011-2014, The OpenBLAS Project


Your calculation utilizes the atom-pairwise dispersion correction
with the zero-damping scheme (D30)
Cite in your paper:
S.Grimme, J.Antony, S.Ehrlich and H.Krieg, J.Chem.Phys., 132, (2010), 154104 
   

XCFun DFT library Copyright 2009-2010 Ulf Ekstrom and contributors.
See http://admol.org/xcfun for more information.
This is free software; see the source code for copying conditions.
There is ABSOLUTELY NO WARRANTY; not even for MERCHANTABILITY or FITNESS FOR A PARTICULAR PURPOSE.
For details see the documentation.
Scientific users of this library should cite U. Ekstrom, L. Visscher, R. Bast, A. J. Thorvaldsen and K. Ruud;
J.Chem.Theor.Comp. 2010, DOI: 10.1021/ct100117s
XCFun Version 0.99 

================================================================================

----- Orbital basis set information -----
Your calculation utilizes the basis: def2-TZVPD
   F. Weigend and R. Ahlrichs, Phys. Chem. Chem. Phys. 7, 3297 (2005).
   D. Rappoport and F. Furche, J. Chem. Phys. 133 134105 (2010).

----- AuxJ basis set information -----
Your calculation utilizes the auxiliary basis: def2/J
   F. Weigend, Phys. Chem. Chem. Phys. 8, 1057 (2006).

================================================================================
                                        WARNINGS
                       Please study these warnings very carefully!
================================================================================


WARNING: Geometry Optimization
  ===> : Switching off AutoStart
         For restart on a previous wavefunction, please use MOREAD

INFO   : the flag for use of the SHARK integral package has been found!

================================================================================
                                       INPUT FILE
================================================================================
NAME = /beegfs/scratch/ispackman/PFAS_EPR_calcs/benchmark/JChemEd_CF3_radical/CH3_radical_98.0_degrees_IN-PROGRESS/CH3_radical_98.0_degrees.inp
|  1> ! UKS TightSCF wB97x-D3 def2-TZVPD xyzfile opt freq
|  2> 
|  3> # CH3 radical 98.0 degrees fixed
|  4> 
|  5> %maxcore 1000
|  6> %pal
|  7> nprocs 18
|  8> end
|  9> 
| 10> %geom Constraints
| 11>         { A * 0 * C }
| 12>     end
| 13> end
| 14> * xyz 0 2
| 15> C 0.00 0.00 0.00
| 16> H 0.9411806433 0.0000000000 -0.5296970801
| 17> H -0.4705903216 0.8150863466 -0.5296970801
| 18> H -0.4705903216 -0.8150863466 -0.5296970801
| 19> **                         ****END OF INPUT****
================================================================================

                       *****************************
                       * Geometry Optimization Run *
                       *****************************

Geometry optimization settings:
Update method            Update   .... BFGS
Choice of coordinates    CoordSys .... Z-matrix Internals
Initial Hessian          InHess   .... Almoef's Model

Convergence Tolerances:
Energy Change            TolE     ....  5.0000e-06 Eh
Max. Gradient            TolMAXG  ....  3.0000e-04 Eh/bohr
RMS Gradient             TolRMSG  ....  1.0000e-04 Eh/bohr
Max. Displacement        TolMAXD  ....  4.0000e-03 bohr
RMS Displacement         TolRMSD  ....  2.0000e-03 bohr
Strict Convergence                ....  False
------------------------------------------------------------------------------
                        ORCA OPTIMIZATION COORDINATE SETUP
------------------------------------------------------------------------------

The optimization will be done in new redundant internal coordinates
Making redundant internal coordinates   ...  (new redundants) done
Evaluating the initial hessian          ...  (Almloef) done
Evaluating the coordinates              ...  done
Calculating the B-matrix                .... done
Calculating the G-matrix                .... done
Diagonalizing the G-matrix              .... done
Imposing constraints:
 Iter   0:  RMS(Cart)=    0.0000000000 RMS(Int)=    0.0000000000
CONVERGED
Will constrain atom 0 coordinate 1 
Will constrain atom 0 coordinate 2 
Will constrain atom 1 coordinate 2 
The first mode is                       ....    1
The number of degrees of freedom        ....    6
Storing new coordinates                 .... done

    -----------------------------------------------------------------
                    Redundant Internal Coordinates


    -----------------------------------------------------------------
         Definition                    Initial Value    Approx d2E/dq
    -----------------------------------------------------------------
      1. B(H   1,C   0)                  1.0800         0.373575   
      2. B(H   2,C   0)                  1.0800         0.373575   
      3. B(H   3,C   0)                  1.0800         0.373575   
      4. A(H   2,C   0,H   3)           98.0000         0.294224 C 
      5. A(H   1,C   0,H   2)           98.0000         0.294224 C 
      6. A(H   1,C   0,H   3)           98.0000         0.294224 C 
      7. I(H   1,H   3,H   2,C   0)     77.7525         0.002542   
    -----------------------------------------------------------------

Number of atoms                         .... 4
Number of degrees of freedom            .... 7

         *************************************************************
         *                GEOMETRY OPTIMIZATION CYCLE   1            *
         *************************************************************
---------------------------------
CARTESIAN COORDINATES (ANGSTROEM)
---------------------------------
  C      0.000000    0.000000    0.000000
  H      0.941181    0.000000   -0.529697
  H     -0.470590    0.815086   -0.529697
  H     -0.470590   -0.815086   -0.529697

----------------------------
CARTESIAN COORDINATES (A.U.)
----------------------------
  NO LB      ZA    FRAG     MASS         X           Y           Z
   0 C     6.0000    0    12.011    0.000000    0.000000    0.000000
   1 H     1.0000    0     1.008    1.778574    0.000000   -1.000982
   2 H     1.0000    0     1.008   -0.889287    1.540290   -1.000982
   3 H     1.0000    0     1.008   -0.889287   -1.540290   -1.000982

--------------------------------
INTERNAL COORDINATES (ANGSTROEM)
--------------------------------
 C      0   0   0     0.000000000000     0.00000000     0.00000000
 H      1   0   0     1.079999999995     0.00000000     0.00000000
 H      1   2   0     1.079999999937    98.00000000     0.00000000
 H      1   2   3     1.079999999937    98.00000000    99.30405922

---------------------------
INTERNAL COORDINATES (A.U.)
---------------------------
 C      0   0   0     0.000000000000     0.00000000     0.00000000
 H      1   0   0     2.040904224625     0.00000000     0.00000000
 H      1   2   0     2.040904224516    98.00000000     0.00000000
 H      1   2   3     2.040904224516    98.00000000    99.30405922

---------------------
BASIS SET INFORMATION
---------------------
There are 2 groups of distinct atoms

 Group   1 Type C   : 12s6p3d1f contracted to 6s3p3d1f pattern {621111/411/111/1}
 Group   2 Type H   : 5s2p contracted to 3s2p pattern {311/11}

Atom   0C    basis set group =>   1
Atom   1H    basis set group =>   2
Atom   2H    basis set group =>   2
Atom   3H    basis set group =>   2
---------------------------------
AUXILIARY/J BASIS SET INFORMATION
---------------------------------
There are 2 groups of distinct atoms

 Group   1 Type C   : 12s5p4d2f1g contracted to 6s4p3d1f1g pattern {711111/2111/211/2/1}
 Group   2 Type H   : 5s2p1d contracted to 3s1p1d pattern {311/2/1}

Atom   0C    basis set group =>   1
Atom   1H    basis set group =>   2
Atom   2H    basis set group =>   2
Atom   3H    basis set group =>   2


           ************************************************************
           *        Program running with 18 parallel MPI-processes    *
           *              working on a common directory               *
           ************************************************************
------------------------------------------------------------------------------
                           ORCA GTO INTEGRAL CALCULATION
                           -- RI-GTO INTEGRALS CHOSEN --
------------------------------------------------------------------------------
------------------------------------------------------------------------------
                   ___                                                        
                  /   \      - P O W E R E D   B Y -                         
                 /     \                                                     
                 |  |  |   _    _      __       _____    __    __             
                 |  |  |  | |  | |    /  \     |  _  \  |  |  /  |          
                  \  \/   | |  | |   /    \    | | | |  |  | /  /          
                 / \  \   | |__| |  /  /\  \   | |_| |  |  |/  /          
                |  |  |   |  __  | /  /__\  \  |    /   |      \           
                |  |  |   | |  | | |   __   |  |    \   |  |\   \          
                \     /   | |  | | |  |  |  |  | |\  \  |  | \   \       
                 \___/    |_|  |_| |__|  |__|  |_| \__\ |__|  \__/        
                                                                              
                      - O R C A' S   B I G   F R I E N D -                    
                                      &                                       
                       - I N T E G R A L  F E E D E R -                       
                                                                              
 v1 FN, 2020, v2 2021                                                         
------------------------------------------------------------------------------


Reading SHARK input file /beegfs/scratch/ispackman/PFAS_EPR_calcs/benchmark/JChemEd_CF3_radical/CH3_radical_98.0_degrees_IN-PROGRESS/CH3_radical_98.0_degrees.SHARKINP.tmp ... ok
----------------------
SHARK INTEGRAL PACKAGE
----------------------

Number of atoms                             ...      4
Number of basis functions                   ...     64
Number of shells                            ...     28
Maximum angular momentum                    ...      3
Integral batch strategy                     ... SHARK/LIBINT Hybrid
RI-J (if used) integral strategy            ... SPLIT-RIJ (Revised 2003 algorithm where possible)
Printlevel                                  ...      1
Contraction scheme used                     ... SEGMENTED contraction
Coulomb Range Separation                    ... NOT USED
Exchange Range Separation                   ... Long Range
   Mu parameter                             ...  0.250000
   Scaling (regular/separated)              ...  0.195728  0.804272
Finite Nucleus Model                        ... NOT USED
Auxiliary Coulomb fitting basis             ... AVAILABLE
   # of basis functions in Aux-J            ...     82
   # of shells in Aux-J                     ...     30
   Maximum angular momentum in Aux-J        ...      4
Auxiliary J/K fitting basis                 ... NOT available
Auxiliary Correlation fitting basis         ... NOT available
Auxiliary 'external' fitting basis          ... NOT available
Integral threshold                          ...     2.500000e-11
Primitive cut-off                           ...     2.500000e-12
Primitive pair pre-selection threshold      ...     2.500000e-12

Calculating pre-screening integrals         ... done (  0.0 sec) Dimension = 28
Organizing shell pair data                  ... done (  0.0 sec)
Shell pair information
Total number of shell pairs                 ...       406
Shell pairs after pre-screening             ...       406
Total number of primitive shell pairs       ...       977
Primitive shell pairs kept                  ...       947
          la=0 lb=0:    120 shell pairs
          la=1 lb=0:    135 shell pairs
          la=1 lb=1:     45 shell pairs
          la=2 lb=0:     45 shell pairs
          la=2 lb=1:     27 shell pairs
          la=2 lb=2:      6 shell pairs
          la=3 lb=0:     15 shell pairs
          la=3 lb=1:      9 shell pairs
          la=3 lb=2:      3 shell pairs
          la=3 lb=3:      1 shell pairs

Calculating one electron integrals          ... done (  0.0 sec)
Calculating RI/J V-Matrix + Cholesky decomp.... done (  0.2 sec)
Calculating Nuclear repulsion               ... done (  0.0 sec) ENN=      9.793462745369 Eh

SHARK setup successfully completed in   0.7 seconds

Maximum memory used throughout the entire GTOINT-calculation: 14.0 MB


           ************************************************************
           *        Program running with 18 parallel MPI-processes    *
           *              working on a common directory               *
           ************************************************************
-------------------------------------------------------------------------------
                                 ORCA SCF
-------------------------------------------------------------------------------

------------
SCF SETTINGS
------------
Hamiltonian:
 Density Functional     Method          .... DFT(GTOs)
 Exchange Functional    Exchange        .... WB97X-D3
 Correlation Functional Correlation     .... WB97X-D3
 Gradients option       PostSCFGGA      .... off
 Hybrid DFT is turned on
   Fraction HF Exchange ScalHFX         ....  0.195728
   Scaling of DF-GGA-X  ScalDFX         ....  0.000000
   Scaling of DF-GGA-C  ScalDFC         ....  1.000000
   Scaling of DF-LDA-C  ScalLDAC        ....  1.000000
   Perturbative correction              ....  0.000000
   Density functional embedding theory  .... OFF
 Long-range corrected/Screened/Range-Separated Hybrid DFT is turned on
   Amount of maximum screened exact exchange              ....  0.804272
   Range separation parameter mu (erf(mu*r12)/r12)        ....  0.250000
 RI-approximation to the Coulomb term is turned on
   Number of AuxJ basis functions       .... 82
   RIJ-COSX (HFX calculated with COS-X)).... on


General Settings:
 Integral files         IntName         .... /beegfs/scratch/ispackman/PFAS_EPR_calcs/benchmark/JChemEd_CF3_radical/CH3_radical_98.0_degrees_IN-PROGRESS/CH3_radical_98.0_degrees
 Hartree-Fock type      HFTyp           .... UHF
 Total Charge           Charge          ....    0
 Multiplicity           Mult            ....    2
 Number of Electrons    NEL             ....    9
 Basis Dimension        Dim             ....   64
 Nuclear Repulsion      ENuc            ....      9.7934627454 Eh

Convergence Acceleration:
 DIIS                   CNVDIIS         .... on
   Start iteration      DIISMaxIt       ....    12
   Startup error        DIISStart       ....  0.200000
   # of expansion vecs  DIISMaxEq       ....     5
   Bias factor          DIISBfac        ....   1.050
   Max. coefficient     DIISMaxC        ....  10.000
 Trust-Rad. Augm. Hess. CNVTRAH         .... auto
   Auto Start mean grad. ratio tolernc. ....  1.125000
   Auto Start start iteration           ....    20
   Auto Start num. interpolation iter.  ....    10
   Max. Number of Micro iterations      ....    16
   Max. Number of Macro iterations      .... Maxiter - #DIIS iter
   Number of Davidson start vectors     ....     2
   Converg. threshold I  (grad. norm)   ....   1.000e-05
   Converg. threshold II (energy diff.) ....   1.000e-08
   Grad. Scal. Fac. for Micro threshold ....   0.100
   Minimum threshold for Micro iter.    ....   0.010
   NR start threshold (gradient norm)   ....   0.001
   Initial trust radius                 ....   0.400
   Minimum AH scaling param. (alpha)    ....   1.000
   Maximum AH scaling param. (alpha)    .... 1000.000
   Orbital update algorithm             .... Taylor
   White noise on init. David. guess    .... on
   Maximum white noise                  ....   0.010
   Quad. conv. algorithm                .... NR
 SOSCF                  CNVSOSCF        .... off
 Level Shifting         CNVShift        .... on
   Level shift para.    LevelShift      ....    0.2500
   Turn off err/grad.   ShiftErr        ....    0.0010
 Zerner damping         CNVZerner       .... off
 Static damping         CNVDamp         .... on
   Fraction old density DampFac         ....    0.7000
   Max. Damping (<1)    DampMax         ....    0.9800
   Min. Damping (>=0)   DampMin         ....    0.0000
   Turn off err/grad.   DampErr         ....    0.1000
 Fernandez-Rico         CNVRico         .... off

SCF Procedure:
 Maximum # iterations   MaxIter         ....   125
 SCF integral mode      SCFMode         .... Direct
   Integral package                     .... SHARK and LIBINT hybrid scheme
 Reset frequency        DirectResetFreq ....    20
 Integral Threshold     Thresh          ....  2.500e-11 Eh
 Primitive CutOff       TCut            ....  2.500e-12 Eh

Convergence Tolerance:
 Convergence Check Mode ConvCheckMode   .... Total+1el-Energy
 Convergence forced     ConvForced      .... 0
 Energy Change          TolE            ....  1.000e-08 Eh
 1-El. energy change                    ....  1.000e-05 Eh
 DIIS Error             TolErr          ....  5.000e-07


Diagonalization of the overlap matrix:
Smallest eigenvalue                        ... 3.689e-05
Time for diagonalization                   ...    0.002 sec
Threshold for overlap eigenvalues          ... 1.000e-08
Number of eigenvalues below threshold      ... 0
Time for construction of square roots      ...    0.056 sec
Total time needed                          ...    0.059 sec

Time for model grid setup =    0.114 sec

------------------------------
INITIAL GUESS: MODEL POTENTIAL
------------------------------
Loading Hartree-Fock densities                     ... done
Calculating cut-offs                               ... done
Initializing the effective Hamiltonian             ... done
Setting up the integral package (SHARK)            ... done
Starting the Coulomb interaction                   ... done (   0.2 sec)
Reading the grid                                   ... done
Mapping shells                                     ... done
Starting the XC term evaluation                    ... done (   0.0 sec)
  promolecular density results
     # of electrons  =      8.997942679
     EX              =     -5.937633695
     EC              =     -0.260590784
     EX+EC           =     -6.198224479
Transforming the Hamiltonian                       ... done (   0.0 sec)
Diagonalizing the Hamiltonian                      ... done (   0.0 sec)
Back transforming the eigenvectors                 ... done (   0.0 sec)
Now organizing SCF variables                       ... done
                      ------------------
                      INITIAL GUESS DONE (   0.3 sec)
                      ------------------
-------------------
DFT GRID GENERATION
-------------------

General Integration Accuracy     IntAcc      ... 4.388
Radial Grid Type                 RadialGrid  ... OptM3 with GC (2021)
Angular Grid (max. ang.)         AngularGrid ... 4 (Lebedev-302)
Angular grid pruning method      GridPruning ... 4 (adaptive)
Weight generation scheme         WeightScheme... Becke
Basis function cutoff            BFCut       ... 1.0000e-11
Integration weight cutoff        WCut        ... 1.0000e-14
Angular grids for H and He will be reduced by one unit
Partially contracted basis set               ... off
Rotationally invariant grid construction     ... off

Total number of grid points                  ...    17033
Total number of batches                      ...      267
Average number of points per batch           ...       63
Average number of grid points per atom       ...     4258
Time for grid setup =    0.182 sec

--------------------
COSX GRID GENERATION
--------------------

GRIDX 1
-------
General Integration Accuracy     IntAcc      ... 3.816
Radial Grid Type                 RadialGrid  ... OptM3 with GC (2021)
Angular Grid (max. ang.)         AngularGrid ... 1 (Lebedev-50)
Angular grid pruning method      GridPruning ... 4 (adaptive)
Weight generation scheme         WeightScheme... Becke
Basis function cutoff            BFCut       ... 1.0000e-11
Integration weight cutoff        WCut        ... 1.0000e-14
Angular grids for H and He will be reduced by one unit
Partially contracted basis set               ... on
Rotationally invariant grid construction     ... off

Total number of grid points                  ...     2145
Total number of batches                      ...       36
Average number of points per batch           ...       59
Average number of grid points per atom       ...      536
UseSFitting                                  ... on

GRIDX 2
-------
General Integration Accuracy     IntAcc      ... 4.020
Radial Grid Type                 RadialGrid  ... OptM3 with GC (2021)
Angular Grid (max. ang.)         AngularGrid ... 2 (Lebedev-110)
Angular grid pruning method      GridPruning ... 4 (adaptive)
Weight generation scheme         WeightScheme... Becke
Basis function cutoff            BFCut       ... 1.0000e-11
Integration weight cutoff        WCut        ... 1.0000e-14
Angular grids for H and He will be reduced by one unit
Partially contracted basis set               ... on
Rotationally invariant grid construction     ... off

Total number of grid points                  ...     5052
Total number of batches                      ...       81
Average number of points per batch           ...       62
Average number of grid points per atom       ...     1263
UseSFitting                                  ... on

GRIDX 3
-------
General Integration Accuracy     IntAcc      ... 4.338
Radial Grid Type                 RadialGrid  ... OptM3 with GC (2021)
Angular Grid (max. ang.)         AngularGrid ... 3 (Lebedev-194)
Angular grid pruning method      GridPruning ... 4 (adaptive)
Weight generation scheme         WeightScheme... Becke
Basis function cutoff            BFCut       ... 1.0000e-11
Integration weight cutoff        WCut        ... 1.0000e-14
Angular grids for H and He will be reduced by one unit
Partially contracted basis set               ... on
Rotationally invariant grid construction     ... off

Total number of grid points                  ...    11714
Total number of batches                      ...      185
Average number of points per batch           ...       63
Average number of grid points per atom       ...     2928
UseSFitting                                  ... on

Time for X-Grid setup             =    0.675 sec

--------------
SCF ITERATIONS
--------------
ITER       Energy         Delta-E        Max-DP      RMS-DP      [F,P]     Damp
               ***  Starting incremental Fock matrix formation  ***
  0    -39.7657943582   0.000000000000 0.06985694  0.00129725  0.0754571 0.7000
  1    -39.7795186865  -0.013724328222 0.06319287  0.00113151  0.0485502 0.7000
                               ***Turning on DIIS***
  2    -39.7873370958  -0.007818409312 0.13183750  0.00243228  0.0281666 0.0000
  3    -39.8010397240  -0.013702628203 0.04609300  0.00082679  0.0191443 0.0000
  4    -39.8025444301  -0.001504706090 0.01471458  0.00024995  0.0032457 0.0000
  5    -39.8026113878  -0.000066957768 0.01317405  0.00021405  0.0016651 0.0000
  6    -39.8026344535  -0.000023065639 0.01410420  0.00022020  0.0006306 0.0000
               *** Restarting incremental Fock matrix formation ***
                                   *** Resetting DIIS ***
  7    -39.8026414456  -0.000006992121 0.00121273  0.00001896  0.0000849 0.0000
  8    -39.8026416086  -0.000000163002 0.00080203  0.00001255  0.0000426 0.0000
  9    -39.8026416602  -0.000000051630 0.00002318  0.00000083  0.0000178 0.0000
 10    -39.8026416632  -0.000000002981 0.00001054  0.00000033  0.0000069 0.0000
                 **** Energy Check signals convergence ****

               *****************************************************
               *                     SUCCESS                       *
               *           SCF CONVERGED AFTER  11 CYCLES          *
               *****************************************************

Old exchange energy                            =     -2.173132340 Eh
New exchange energy                            =     -2.173135379 Eh
Exchange energy change after final integration =     -0.000003039 Eh
Total energy after final integration           =    -39.802644702 Eh
Final COS-X integration done in                =     0.136 sec

----------------
TOTAL SCF ENERGY
----------------

Total Energy       :          -39.80264470 Eh           -1083.08503 eV

Components:
Nuclear Repulsion  :            9.79346275 Eh             266.49367 eV
Electronic Energy  :          -49.59610745 Eh           -1349.57869 eV
One Electron Energy:          -71.81476754 Eh           -1954.17917 eV
Two Electron Energy:           22.21866009 Eh             604.60048 eV
Max COSX asymmetry :            0.00000008 Eh               0.00000 eV

Virial components:
Potential Energy   :          -79.47101713 Eh           -2162.51632 eV
Kinetic Energy     :           39.66837243 Eh            1079.43129 eV
Virial Ratio       :            2.00338487


DFT components:
N(Alpha)           :        4.999997201505 electrons
N(Beta)            :        4.000000219312 electrons
N(Total)           :        8.999997420817 electrons
E(XC)              :       -4.316731817146 Eh       
DFET-embed. en.    :        0.000000000000 Eh       

---------------
SCF CONVERGENCE
---------------

  Last Energy change         ...   -2.7446e-10  Tolerance :   1.0000e-08
  Last MAX-Density change    ...    0.0000e+00  Tolerance :   1.0000e-07
  Last RMS-Density change    ...    0.0000e+00  Tolerance :   5.0000e-09
  Last DIIS Error            ...    1.2970e-06  Tolerance :   5.0000e-07

             **** THE GBW FILE WAS UPDATED (/beegfs/scratch/ispackman/PFAS_EPR_calcs/benchmark/JChemEd_CF3_radical/CH3_radical_98.0_degrees_IN-PROGRESS/CH3_radical_98.0_degrees.gbw) ****
             **** DENSITY /beegfs/scratch/ispackman/PFAS_EPR_calcs/benchmark/JChemEd_CF3_radical/CH3_radical_98.0_degrees_IN-PROGRESS/CH3_radical_98.0_degrees.scfp WAS UPDATED ****
             **** ENERGY FILE WAS UPDATED (/beegfs/scratch/ispackman/PFAS_EPR_calcs/benchmark/JChemEd_CF3_radical/CH3_radical_98.0_degrees_IN-PROGRESS/CH3_radical_98.0_degrees.en.tmp) ****
----------------------
UHF SPIN CONTAMINATION
----------------------

Warning: in a DFT calculation there is little theoretical justification to 
         calculate <S**2> as in Hartree-Fock theory. We will do it anyways
         but you should keep in mind that the values have only limited relevance

Expectation value of <S**2>     :     0.753103
Ideal value S*(S+1) for S=0.5   :     0.750000
Deviation                       :     0.003103

             **** THE GBW FILE WAS UPDATED (/beegfs/scratch/ispackman/PFAS_EPR_calcs/benchmark/JChemEd_CF3_radical/CH3_radical_98.0_degrees_IN-PROGRESS/CH3_radical_98.0_degrees.gbw) ****
             **** DENSITY /beegfs/scratch/ispackman/PFAS_EPR_calcs/benchmark/JChemEd_CF3_radical/CH3_radical_98.0_degrees_IN-PROGRESS/CH3_radical_98.0_degrees.scfp WAS UPDATED ****
----------------
ORBITAL ENERGIES
----------------
                 SPIN UP ORBITALS
  NO   OCC          E(Eh)            E(eV) 
   0   1.0000     -10.295909      -280.1659 
   1   1.0000      -0.822938       -22.3933 
   2   1.0000      -0.491434       -13.3726 
   3   1.0000      -0.491410       -13.3720 
   4   1.0000      -0.392351       -10.6764 
   5   0.0000       0.074785         2.0350 
   6   0.0000       0.161571         4.3966 
   7   0.0000       0.161577         4.3967 
   8   0.0000       0.172372         4.6905 
   9   0.0000       0.193843         5.2747 
  10   0.0000       0.193844         5.2748 
  11   0.0000       0.237594         6.4653 
  12   0.0000       0.253045         6.8857 
  13   0.0000       0.253051         6.8859 
  14   0.0000       0.315923         8.5967 
  15   0.0000       0.350451         9.5363 
  16   0.0000       0.350458         9.5364 
  17   0.0000       0.353071         9.6075 
  18   0.0000       0.380814        10.3625 
  19   0.0000       0.383200        10.4274 
  20   0.0000       0.383205        10.4275 
  21   0.0000       0.396013        10.7761 
  22   0.0000       0.396022        10.7763 
  23   0.0000       0.531459        14.4617 
  24   0.0000       0.562056        15.2943 
  25   0.0000       0.562064        15.2945 
  26   0.0000       0.654118        17.7995 
  27   0.0000       0.784268        21.3410 
  28   0.0000       0.788147        21.4466 
  29   0.0000       0.788154        21.4468 
  30   0.0000       0.867981        23.6190 
  31   0.0000       0.867995        23.6193 
  32   0.0000       0.964240        26.2383 
  33   0.0000       1.162350        31.6291 
  34   0.0000       1.162385        31.6301 
  35   0.0000       1.648128        44.8478 
  36   0.0000       1.744221        47.4627 
  37   0.0000       1.744274        47.4641 
  38   0.0000       1.784756        48.5657 
  39   0.0000       1.827506        49.7290 
  40   0.0000       1.940085        52.7924 
  41   0.0000       1.940122        52.7934 
  42   0.0000       2.203493        59.9601 
  43   0.0000       2.204595        59.9901 
  44   0.0000       2.204658        59.9918 
  45   0.0000       2.478546        67.4447 
  46   0.0000       2.648064        72.0575 
  47   0.0000       2.648150        72.0598 
  48   0.0000       2.725718        74.1706 
  49   0.0000       2.725802        74.1728 
  50   0.0000       2.790553        75.9348 
  51   0.0000       3.103710        84.4562 
  52   0.0000       3.154711        85.8441 
  53   0.0000       3.154806        85.8466 
  54   0.0000       3.273034        89.0638 
  55   0.0000       3.332403        90.6793 
  56   0.0000       3.332447        90.6805 
  57   0.0000       3.336806        90.7991 
  58   0.0000       3.727050       101.4182 
  59   0.0000       3.727098       101.4195 
  60   0.0000       4.315435       117.4290 
  61   0.0000       4.476257       121.8051 
  62   0.0000       4.476397       121.8090 
  63   0.0000      22.178421       603.5055 

                 SPIN DOWN ORBITALS
  NO   OCC          E(Eh)            E(eV) 
   0   1.0000     -10.284159      -279.8462 
   1   1.0000      -0.788164       -21.4470 
   2   1.0000      -0.475710       -12.9447 
   3   1.0000      -0.475692       -12.9442 
   4   0.0000      -0.038314        -1.0426 
   5   0.0000       0.083026         2.2593 
   6   0.0000       0.166667         4.5352 
   7   0.0000       0.166670         4.5353 
   8   0.0000       0.201135         5.4732 
   9   0.0000       0.201139         5.4733 
  10   0.0000       0.207783         5.6541 
  11   0.0000       0.252634         6.8745 
  12   0.0000       0.256767         6.9870 
  13   0.0000       0.256769         6.9870 
  14   0.0000       0.324312         8.8250 
  15   0.0000       0.366776         9.9805 
  16   0.0000       0.366777         9.9805 
  17   0.0000       0.368823        10.0362 
  18   0.0000       0.380628        10.3574 
  19   0.0000       0.390305        10.6207 
  20   0.0000       0.390308        10.6208 
  21   0.0000       0.404467        11.0061 
  22   0.0000       0.404469        11.0062 
  23   0.0000       0.566310        15.4101 
  24   0.0000       0.566313        15.4102 
  25   0.0000       0.569186        15.4883 
  26   0.0000       0.662548        18.0289 
  27   0.0000       0.791693        21.5430 
  28   0.0000       0.800840        21.7920 
  29   0.0000       0.800848        21.7922 
  30   0.0000       0.887766        24.1573 
  31   0.0000       0.887792        24.1581 
  32   0.0000       0.981697        26.7133 
  33   0.0000       1.173409        31.9301 
  34   0.0000       1.173430        31.9307 
  35   0.0000       1.718376        46.7594 
  36   0.0000       1.753943        47.7272 
  37   0.0000       1.753987        47.7284 
  38   0.0000       1.786115        48.6027 
  39   0.0000       1.841457        50.1086 
  40   0.0000       1.955536        53.2128 
  41   0.0000       1.955562        53.2135 
  42   0.0000       2.207046        60.0568 
  43   0.0000       2.215142        60.2771 
  44   0.0000       2.215157        60.2775 
  45   0.0000       2.493443        67.8500 
  46   0.0000       2.654685        72.2376 
  47   0.0000       2.654698        72.2380 
  48   0.0000       2.751750        74.8789 
  49   0.0000       2.751782        74.8798 
  50   0.0000       2.813248        76.5524 
  51   0.0000       3.151470        85.7559 
  52   0.0000       3.201691        87.1225 
  53   0.0000       3.201706        87.1228 
  54   0.0000       3.295106        89.6644 
  55   0.0000       3.362656        91.5025 
  56   0.0000       3.369689        91.6939 
  57   0.0000       3.369693        91.6940 
  58   0.0000       3.771759       102.6348 
  59   0.0000       3.771773       102.6352 
  60   0.0000       4.338951       118.0689 
  61   0.0000       4.498913       122.4216 
  62   0.0000       4.498990       122.4237 
  63   0.0000      22.198463       604.0509 

                    ********************************
                    * MULLIKEN POPULATION ANALYSIS *
                    ********************************

--------------------------------------------
MULLIKEN ATOMIC CHARGES AND SPIN POPULATIONS
--------------------------------------------
   0 C :   -0.692038    0.887678
   1 H :    0.230407    0.037472
   2 H :    0.230815    0.037425
   3 H :    0.230815    0.037425
Sum of atomic charges         :   -0.0000000
Sum of atomic spin populations:    1.0000000

-----------------------------------------------------
MULLIKEN REDUCED ORBITAL CHARGES AND SPIN POPULATIONS
-----------------------------------------------------
CHARGE
  0 C s       :     3.311891  s :     3.311891
      pz      :     0.962911  p :     3.325332
      px      :     1.181190
      py      :     1.181231
      dz2     :     0.000091  d :     0.054249
      dxz     :     0.019470
      dyz     :     0.019476
      dx2y2   :     0.007599
      dxy     :     0.007614
      f0      :     0.000297  f :     0.000565
      f+1     :     0.000029
      f-1     :     0.000029
      f+2     :    -0.000058
      f-2     :    -0.000055
      f+3     :     0.000324
      f-3     :     0.000000
  1 H s       :     0.727456  s :     0.727456
      pz      :     0.022463  p :     0.042137
      px      :     0.014223
      py      :     0.005451
  2 H s       :     0.727167  s :     0.727167
      pz      :     0.022411  p :     0.042017
      px      :     0.007618
      py      :     0.011989
  3 H s       :     0.727167  s :     0.727167
      pz      :     0.022411  p :     0.042018
      px      :     0.007618
      py      :     0.011989

SPIN
  0 C s       :     0.030947  s :     0.030947
      pz      :     0.859532  p :     0.868459
      px      :     0.004426
      py      :     0.004502
      dz2     :    -0.000513  d :    -0.011246
      dxz     :    -0.004943
      dyz     :    -0.004938
      dx2y2   :    -0.000430
      dxy     :    -0.000423
      f0      :    -0.000472  f :    -0.000483
      f+1     :     0.000063
      f-1     :     0.000063
      f+2     :    -0.000015
      f-2     :    -0.000014
      f+3     :    -0.000108
      f-3     :     0.000000
  1 H s       :     0.016031  s :     0.016031
      pz      :     0.019203  p :     0.021440
      px      :    -0.000577
      py      :     0.002814
  2 H s       :     0.016037  s :     0.016037
      pz      :     0.019159  p :     0.021388
      px      :     0.001960
      py      :     0.000270
  3 H s       :     0.016037  s :     0.016037
      pz      :     0.019159  p :     0.021388
      px      :     0.001960
      py      :     0.000270


                     *******************************
                     * LOEWDIN POPULATION ANALYSIS *
                     *******************************

-------------------------------------------
LOEWDIN ATOMIC CHARGES AND SPIN POPULATIONS
-------------------------------------------
   0 C :    0.054774    0.836710
   1 H :   -0.018283    0.054432
   2 H :   -0.018245    0.054429
   3 H :   -0.018245    0.054429

----------------------------------------------------
LOEWDIN REDUCED ORBITAL CHARGES AND SPIN POPULATIONS
----------------------------------------------------
CHARGE
  0 C s       :     2.904100  s :     2.904100
      pz      :     0.765078  p :     2.907762
      px      :     1.071338
      py      :     1.071346
      dz2     :     0.003017  d :     0.121746
      dxz     :     0.032065
      dyz     :     0.032066
      dx2y2   :     0.027297
      dxy     :     0.027300
      f0      :     0.001447  f :     0.011617
      f+1     :     0.000167
      f-1     :     0.000166
      f+2     :     0.003838
      f-2     :     0.003840
      f+3     :     0.002160
      f-3     :     0.000000
  1 H s       :     0.747181  s :     0.747181
      pz      :     0.071684  p :     0.271102
      px      :     0.121101
      py      :     0.078317
  2 H s       :     0.747160  s :     0.747160
      pz      :     0.071677  p :     0.271086
      px      :     0.089005
      py      :     0.110404
  3 H s       :     0.747160  s :     0.747160
      pz      :     0.071677  p :     0.271086
      px      :     0.089005
      py      :     0.110404

SPIN
  0 C s       :     0.123052  s :     0.123052
      pz      :     0.682426  p :     0.724534
      px      :     0.021062
      py      :     0.021045
      dz2     :     0.000990  d :    -0.010752
      dxz     :    -0.004338
      dyz     :    -0.004342
      dx2y2   :    -0.001536
      dxy     :    -0.001527
      f0      :    -0.000183  f :    -0.000124
      f+1     :     0.000088
      f-1     :     0.000088
      f+2     :    -0.000212
      f-2     :    -0.000210
      f+3     :     0.000304
      f-3     :     0.000000
  1 H s       :    -0.000245  s :    -0.000245
      pz      :     0.052768  p :     0.054677
      px      :     0.002931
      py      :    -0.001023
  2 H s       :    -0.000252  s :    -0.000252
      pz      :     0.052767  p :     0.054681
      px      :    -0.000037
      py      :     0.001951
  3 H s       :    -0.000252  s :    -0.000252
      pz      :     0.052767  p :     0.054681
      px      :    -0.000037
      py      :     0.001951


                      *****************************
                      * MAYER POPULATION ANALYSIS *
                      *****************************

  NA   - Mulliken gross atomic population
  ZA   - Total nuclear charge
  QA   - Mulliken gross atomic charge
  VA   - Mayer's total valence
  BVA  - Mayer's bonded valence
  FA   - Mayer's free valence

  ATOM       NA         ZA         QA         VA         BVA        FA
  0 C      6.6920     6.0000    -0.6920     3.8337     3.0628     0.7709
  1 H      0.7696     1.0000     0.2304     1.0060     1.0046     0.0014
  2 H      0.7692     1.0000     0.2308     1.0055     1.0041     0.0014
  3 H      0.7692     1.0000     0.2308     1.0055     1.0041     0.0014

  Mayer bond orders larger than 0.100000
B(  0-C ,  1-H ) :   1.0212 B(  0-C ,  2-H ) :   1.0208 B(  0-C ,  3-H ) :   1.0208 


-------
TIMINGS
-------

Total SCF time: 0 days 0 hours 0 min 17 sec 

Total time                  ....      17.936 sec
Sum of individual times     ....      15.744 sec  ( 87.8%)

Fock matrix formation       ....      12.495 sec  ( 69.7%)
  Split-RI-J                ....       1.223 sec  (  9.8% of F)
  Chain of spheres X        ....       1.479 sec  ( 11.8% of F)
  XC integration            ....       2.610 sec  ( 20.9% of F)
    Basis function eval.    ....       0.053 sec  (  2.0% of XC)
    Density eval.           ....       0.066 sec  (  2.5% of XC)
    XC-Functional eval.     ....       0.067 sec  (  2.6% of XC)
    XC-Potential eval.      ....       0.073 sec  (  2.8% of XC)
Diagonalization             ....       0.264 sec  (  1.5%)
Density matrix formation    ....       0.024 sec  (  0.1%)
Population analysis         ....       0.398 sec  (  2.2%)
Initial guess               ....       0.223 sec  (  1.2%)
Orbital Transformation      ....       0.000 sec  (  0.0%)
Orbital Orthonormalization  ....       0.000 sec  (  0.0%)
DIIS solution               ....       1.370 sec  (  7.6%)
Grid generation             ....       0.971 sec  (  5.4%)

Maximum memory used throughout the entire SCF-calculation: 58.5 MB


-------------------------------------------------------------------------------
                          DFT DISPERSION CORRECTION                            
                                                                               
                              DFTD3 V3.1  Rev 1                                
                              USING zero damping                               
-------------------------------------------------------------------------------
The omegaB97X-D3 functional is recognized. Fit by Chai et al.
Active option DFTDOPT                   ...         3   

molecular C6(AA) [au] = 106.957037 


            DFT-D V3
 parameters
 s6 scaling factor         :     1.0000 
 rs6 scaling factor        :     1.2810 
 s8 scaling factor         :     1.0000 
 rs8 scaling factor        :     1.0940 
 Damping factor alpha6     :    14.0000 
 Damping factor alpha8     :    16.0000 
 ad hoc parameters k1-k3   :    16.0000     1.3333    -4.0000 

 Edisp/kcal,au: -0.003921724602  -0.000006249665 
 E6   /kcal   :  -0.000609571 
 E8   /kcal   :  -0.003312153 
 % E8         :  84.456547121 

-------------------------   ----------------
Dispersion correction           -0.000006250
-------------------------   ----------------


-------------------------   --------------------
FINAL SINGLE POINT ENERGY       -39.802650951653
-------------------------   --------------------



           ************************************************************
           *        Program running with 18 parallel MPI-processes    *
           *              working on a common directory               *
           ************************************************************
------------------------------------------------------------------------------
                         ORCA SCF GRADIENT CALCULATION
------------------------------------------------------------------------------

 ... reading COSX grid (gridx3)
Gradient of the Kohn-Sham DFT energy:
Kohn-Sham wavefunction type      ... UKS
Hartree-Fock exchange scaling    ...    0.196
Number of operators              ...    2
Number of atoms                  ...    4
Basis set dimensions             ...   64
Integral neglect threshold       ... 2.5e-11
Integral primitive cutoff        ... 2.5e-12
SHARK Integral package           ... ON

Nuc. rep. gradient       (SHARK) ... done (  0.0 sec)
HCore & Overlap gradient (SHARK) ... done (  0.0 sec)
RI-J gradient            (SHARK) ... done (  0.1 sec)
COSX-gradient                    ... done (  0.1 sec)
Exchange-correlation gradient    ... done
Dispersion correction            ... done

------------------
CARTESIAN GRADIENT
------------------

WARNING: THERE ARE 3 CONSTRAINED CARTESIAN COORDINATES
   1   C   :   -0.000085406   -0.000000017    0.070696907
   2   H   :   -0.028128503   -0.000000035   -0.023597345
   3   H   :    0.014074297   -0.024300506   -0.023536670
   4   H   :    0.014074263    0.024300518   -0.023536688

Difference to translation invariance:
           :   -0.0000653499   -0.0000000403    0.0000262039

Difference to rotation invariance:
           :    0.0000000034    0.0000878237   -0.0000001236

Norm of the cartesian gradient     ...    0.0950329330
RMS gradient                       ...    0.0274336447
MAX gradient                       ...    0.0706969073

-------
TIMINGS
-------

Total SCF gradient time            ...        0.757 sec

One electron gradient       ....       0.007 sec  (  0.9%)
RI-J Coulomb gradient       ....       0.147 sec  ( 19.5%)
COSX gradient               ....       0.122 sec  ( 16.1%)
XC gradient                 ....       0.071 sec  (  9.3%)

Maximum memory used throughout the entire SCFGRAD-calculation: 33.6 MB
------------------------------------------------------------------------------
                         ORCA GEOMETRY RELAXATION STEP
------------------------------------------------------------------------------

Reading the OPT-File                    .... done
Getting information on internals        .... done
Copying old internal coords+grads       .... done
Making the new internal coordinates     .... (new redundants).... done
Validating the new internal coordinates .... (new redundants).... done
Calculating the B-matrix                .... done
Calculating the G,G- and P matrices     .... done
Transforming gradient to internals      .... done
Projecting the internal gradient        .... done
Number of atoms                         ....   4
Number of internal coordinates          ....   7
Current Energy                          ....   -39.802650952 Eh
Current gradient norm                   ....     0.095032933 Eh/bohr
Maximum allowed component of the step   ....  0.300
Current trust radius                    ....  0.300
Evaluating the initial hessian          ....  (Almloef) done
Projecting the Hessian                  .... done
Forming the augmented Hessian           .... done
Diagonalizing the augmented Hessian     .... done
Last element of RFO vector              ....  0.998220892
Lowest eigenvalues of augmented Hessian:
 -0.001337588  0.373574723  0.373574723  0.374912311 1000.000000000
Length of the computed step             ....  0.059730515
The final length of the internal step   ....  0.059730515
Converting the step to cartesian space:
 Initial RMS(Int)=    0.0225760125
Transforming coordinates:
 Iter   0:  RMS(Cart)=    0.0156100051 RMS(Int)=    0.0225760125
 Iter   1:  RMS(Cart)=    0.0000000000 RMS(Int)=    0.0000000000
Imposing constraints:
 Iter   0:  RMS(Cart)=    0.0000000010 RMS(Int)=    0.0000000015
CONVERGED
done
Storing new coordinates                 .... done

                                .--------------------.
          ----------------------|Geometry convergence|-------------------------
          Item                value                   Tolerance       Converged
          ---------------------------------------------------------------------
          RMS gradient        0.0084640250            0.0001000000      NO
          MAX gradient        0.0129302371            0.0003000000      NO
          RMS step            0.0225760125            0.0020000000      NO
          MAX step            0.0344886970            0.0040000000      NO
          ........................................................
          Max(Bonds)      0.0183      Max(Angles)    0.00
          Max(Dihed)        0.00      Max(Improp)    0.00
          ---------------------------------------------------------------------

The optimization has not yet converged - more geometry cycles are needed


    ---------------------------------------------------------------------------
                         Redundant Internal Coordinates
                            (Angstroem and degrees)

        Definition                    Value    dE/dq     Step     New-Value
    ----------------------------------------------------------------------------
     1. B(H   1,C   0)                1.0800 -0.012927  0.0182    1.0982   
     2. B(H   2,C   0)                1.0800 -0.012930  0.0183    1.0983   
     3. B(H   3,C   0)                1.0800 -0.012930  0.0183    1.0983   
     4. A(H   2,C   0,H   3)           98.00 -0.048882    0.00     98.00 C 
     5. A(H   1,C   0,H   2)           98.00 -0.022538    0.00     98.00 C 
     6. A(H   1,C   0,H   3)           98.00 -0.022538   -0.00     98.00 C 
     7. I(H   1,H   3,H   2,C   0)     77.75  0.040914    0.00     77.75   
    ----------------------------------------------------------------------------

         *************************************************************
         *                GEOMETRY OPTIMIZATION CYCLE   2            *
         *************************************************************
---------------------------------
CARTESIAN COORDINATES (ANGSTROEM)
---------------------------------
  C      0.000002    0.000000    0.006713
  H      0.957082    0.000000   -0.531934
  H     -0.478542    0.828860   -0.531935
  H     -0.478542   -0.828860   -0.531935

----------------------------
CARTESIAN COORDINATES (A.U.)
----------------------------
  NO LB      ZA    FRAG     MASS         X           Y           Z
   0 C     6.0000    0    12.011    0.000003    0.000000    0.012685
   1 H     1.0000    0     1.008    1.808623    0.000000   -1.005210
   2 H     1.0000    0     1.008   -0.904313    1.566319   -1.005211
   3 H     1.0000    0     1.008   -0.904313   -1.566319   -1.005211

--------------------------------
INTERNAL COORDINATES (ANGSTROEM)
--------------------------------
 C      0   0   0     0.000000000000     0.00000000     0.00000000
 H      1   0   0     1.098245454555     0.00000000     0.00000000
 H      1   2   0     1.098250621137    98.00000007     0.00000000
 H      1   2   3     1.098250632332    98.00000007    99.30405940

---------------------------
INTERNAL COORDINATES (A.U.)
---------------------------
 C      0   0   0     0.000000000000     0.00000000     0.00000000
 H      1   0   0     2.075383136933     0.00000000     0.00000000
 H      1   2   0     2.075392900359    98.00000007     0.00000000
 H      1   2   3     2.075392921513    98.00000007    99.30405940



           ************************************************************
           *        Program running with 18 parallel MPI-processes    *
           *              working on a common directory               *
           ************************************************************
------------------------------------------------------------------------------
                   ___                                                        
                  /   \      - P O W E R E D   B Y -                         
                 /     \                                                     
                 |  |  |   _    _      __       _____    __    __             
                 |  |  |  | |  | |    /  \     |  _  \  |  |  /  |          
                  \  \/   | |  | |   /    \    | | | |  |  | /  /          
                 / \  \   | |__| |  /  /\  \   | |_| |  |  |/  /          
                |  |  |   |  __  | /  /__\  \  |    /   |      \           
                |  |  |   | |  | | |   __   |  |    \   |  |\   \          
                \     /   | |  | | |  |  |  |  | |\  \  |  | \   \       
                 \___/    |_|  |_| |__|  |__|  |_| \__\ |__|  \__/        
                                                                              
                      - O R C A' S   B I G   F R I E N D -                    
                                      &                                       
                       - I N T E G R A L  F E E D E R -                       
                                                                              
 v1 FN, 2020, v2 2021                                                         
------------------------------------------------------------------------------


Reading SHARK input file /beegfs/scratch/ispackman/PFAS_EPR_calcs/benchmark/JChemEd_CF3_radical/CH3_radical_98.0_degrees_IN-PROGRESS/CH3_radical_98.0_degrees.SHARKINP.tmp ... ok
----------------------
SHARK INTEGRAL PACKAGE
----------------------

Number of atoms                             ...      4
Number of basis functions                   ...     64
Number of shells                            ...     28
Maximum angular momentum                    ...      3
Integral batch strategy                     ... SHARK/LIBINT Hybrid
RI-J (if used) integral strategy            ... SPLIT-RIJ (Revised 2003 algorithm where possible)
Printlevel                                  ...      1
Contraction scheme used                     ... SEGMENTED contraction
Coulomb Range Separation                    ... NOT USED
Exchange Range Separation                   ... Long Range
   Mu parameter                             ...  0.250000
   Scaling (regular/separated)              ...  0.195728  0.804272
Finite Nucleus Model                        ... NOT USED
Auxiliary Coulomb fitting basis             ... AVAILABLE
   # of basis functions in Aux-J            ...     82
   # of shells in Aux-J                     ...     30
   Maximum angular momentum in Aux-J        ...      4
Auxiliary J/K fitting basis                 ... NOT available
Auxiliary Correlation fitting basis         ... NOT available
Auxiliary 'external' fitting basis          ... NOT available
Integral threshold                          ...     2.500000e-11
Primitive cut-off                           ...     2.500000e-12
Primitive pair pre-selection threshold      ...     2.500000e-12

Calculating pre-screening integrals         ... done (  0.0 sec) Dimension = 28
Organizing shell pair data                  ... done (  0.0 sec)
Shell pair information
Total number of shell pairs                 ...       406
Shell pairs after pre-screening             ...       406
Total number of primitive shell pairs       ...       977
Primitive shell pairs kept                  ...       947
          la=0 lb=0:    120 shell pairs
          la=1 lb=0:    135 shell pairs
          la=1 lb=1:     45 shell pairs
          la=2 lb=0:     45 shell pairs
          la=2 lb=1:     27 shell pairs
          la=2 lb=2:      6 shell pairs
          la=3 lb=0:     15 shell pairs
          la=3 lb=1:      9 shell pairs
          la=3 lb=2:      3 shell pairs
          la=3 lb=3:      1 shell pairs

Calculating one electron integrals          ... done (  0.0 sec)
Calculating RI/J V-Matrix + Cholesky decomp.... done (  0.2 sec)
Calculating Nuclear repulsion               ... done (  0.0 sec) ENN=      9.630731010125 Eh

SHARK setup successfully completed in   0.7 seconds

Maximum memory used throughout the entire GTOINT-calculation: 14.0 MB


           ************************************************************
           *        Program running with 18 parallel MPI-processes    *
           *              working on a common directory               *
           ************************************************************

Diagonalization of the overlap matrix:
Smallest eigenvalue                        ... 4.223e-05
Time for diagonalization                   ...    0.002 sec
Threshold for overlap eigenvalues          ... 1.000e-08
Number of eigenvalues below threshold      ... 0
Time for construction of square roots      ...    0.088 sec
Total time needed                          ...    0.091 sec

-------------------
DFT GRID GENERATION
-------------------

General Integration Accuracy     IntAcc      ... 4.388
Radial Grid Type                 RadialGrid  ... OptM3 with GC (2021)
Angular Grid (max. ang.)         AngularGrid ... 4 (Lebedev-302)
Angular grid pruning method      GridPruning ... 4 (adaptive)
Weight generation scheme         WeightScheme... Becke
Basis function cutoff            BFCut       ... 1.0000e-11
Integration weight cutoff        WCut        ... 1.0000e-14
Angular grids for H and He will be reduced by one unit
Partially contracted basis set               ... off
Rotationally invariant grid construction     ... off

Total number of grid points                  ...    17037
Total number of batches                      ...      268
Average number of points per batch           ...       63
Average number of grid points per atom       ...     4259
Time for grid setup =    0.164 sec

--------------------
COSX GRID GENERATION
--------------------

GRIDX 1
-------
General Integration Accuracy     IntAcc      ... 3.816
Radial Grid Type                 RadialGrid  ... OptM3 with GC (2021)
Angular Grid (max. ang.)         AngularGrid ... 1 (Lebedev-50)
Angular grid pruning method      GridPruning ... 4 (adaptive)
Weight generation scheme         WeightScheme... Becke
Basis function cutoff            BFCut       ... 1.0000e-11
Integration weight cutoff        WCut        ... 1.0000e-14
Angular grids for H and He will be reduced by one unit
Partially contracted basis set               ... on
Rotationally invariant grid construction     ... off

Total number of grid points                  ...     2145
Total number of batches                      ...       36
Average number of points per batch           ...       59
Average number of grid points per atom       ...      536
UseSFitting                                  ... on

GRIDX 2
-------
General Integration Accuracy     IntAcc      ... 4.020
Radial Grid Type                 RadialGrid  ... OptM3 with GC (2021)
Angular Grid (max. ang.)         AngularGrid ... 2 (Lebedev-110)
Angular grid pruning method      GridPruning ... 4 (adaptive)
Weight generation scheme         WeightScheme... Becke
Basis function cutoff            BFCut       ... 1.0000e-11
Integration weight cutoff        WCut        ... 1.0000e-14
Angular grids for H and He will be reduced by one unit
Partially contracted basis set               ... on
Rotationally invariant grid construction     ... off

Total number of grid points                  ...     5054
Total number of batches                      ...       81
Average number of points per batch           ...       62
Average number of grid points per atom       ...     1264
UseSFitting                                  ... on

GRIDX 3
-------
General Integration Accuracy     IntAcc      ... 4.338
Radial Grid Type                 RadialGrid  ... OptM3 with GC (2021)
Angular Grid (max. ang.)         AngularGrid ... 3 (Lebedev-194)
Angular grid pruning method      GridPruning ... 4 (adaptive)
Weight generation scheme         WeightScheme... Becke
Basis function cutoff            BFCut       ... 1.0000e-11
Integration weight cutoff        WCut        ... 1.0000e-14
Angular grids for H and He will be reduced by one unit
Partially contracted basis set               ... on
Rotationally invariant grid construction     ... off

Total number of grid points                  ...    11718
Total number of batches                      ...      186
Average number of points per batch           ...       63
Average number of grid points per atom       ...     2930
UseSFitting                                  ... on

Time for X-Grid setup             =    0.658 sec

--------------
SCF ITERATIONS
--------------
ITER       Energy         Delta-E        Max-DP      RMS-DP      [F,P]     Damp
               ***  Starting incremental Fock matrix formation  ***
  0    -39.8031337378   0.000000000000 0.01634343  0.00026914  0.0051438 0.7000
  1    -39.8031958813  -0.000062143513 0.01423601  0.00023495  0.0037627 0.7000
                               ***Turning on DIIS***
  2    -39.8032374723  -0.000041591022 0.03660920  0.00060502  0.0027350 0.0000
  3    -39.8033288549  -0.000091382589 0.00655348  0.00011222  0.0007454 0.0000
               *** Restarting incremental Fock matrix formation ***
                                   *** Resetting DIIS ***
  4    -39.8033331809  -0.000004325953 0.00083993  0.00002169  0.0003630 0.0000
  5    -39.8033338900  -0.000000709087 0.00049618  0.00000972  0.0002125 0.0000
  6    -39.8033341930  -0.000000303010 0.00020459  0.00000520  0.0000458 0.0000
  7    -39.8033342172  -0.000000024200 0.00008065  0.00000165  0.0000108 0.0000
                 **** Energy Check signals convergence ****

               *****************************************************
               *                     SUCCESS                       *
               *           SCF CONVERGED AFTER   8 CYCLES          *
               *****************************************************

Old exchange energy                            =     -2.168209505 Eh
New exchange energy                            =     -2.168212730 Eh
Exchange energy change after final integration =     -0.000003225 Eh
Total energy after final integration           =    -39.803337443 Eh
Final COS-X integration done in                =     0.127 sec
Total Energy       :          -39.80333744 Eh           -1083.10388 eV
  Last Energy change         ...   -1.0175e-09  Tolerance :   1.0000e-08
  Last MAX-Density change    ...    0.0000e+00  Tolerance :   1.0000e-07
             **** THE GBW FILE WAS UPDATED (/beegfs/scratch/ispackman/PFAS_EPR_calcs/benchmark/JChemEd_CF3_radical/CH3_radical_98.0_degrees_IN-PROGRESS/CH3_radical_98.0_degrees.gbw) ****
             **** DENSITY /beegfs/scratch/ispackman/PFAS_EPR_calcs/benchmark/JChemEd_CF3_radical/CH3_radical_98.0_degrees_IN-PROGRESS/CH3_radical_98.0_degrees.scfp WAS UPDATED ****
             **** ENERGY FILE WAS UPDATED (/beegfs/scratch/ispackman/PFAS_EPR_calcs/benchmark/JChemEd_CF3_radical/CH3_radical_98.0_degrees_IN-PROGRESS/CH3_radical_98.0_degrees.en.tmp) ****
----------------------
UHF SPIN CONTAMINATION
----------------------

Warning: in a DFT calculation there is little theoretical justification to 
         calculate <S**2> as in Hartree-Fock theory. We will do it anyways
         but you should keep in mind that the values have only limited relevance

Expectation value of <S**2>     :     0.753213
Ideal value S*(S+1) for S=0.5   :     0.750000
Deviation                       :     0.003213

             **** THE GBW FILE WAS UPDATED (/beegfs/scratch/ispackman/PFAS_EPR_calcs/benchmark/JChemEd_CF3_radical/CH3_radical_98.0_degrees_IN-PROGRESS/CH3_radical_98.0_degrees.gbw) ****
             **** DENSITY /beegfs/scratch/ispackman/PFAS_EPR_calcs/benchmark/JChemEd_CF3_radical/CH3_radical_98.0_degrees_IN-PROGRESS/CH3_radical_98.0_degrees.scfp WAS UPDATED ****
Total SCF time: 0 days 0 hours 0 min 13 sec 

Maximum memory used throughout the entire SCF-calculation: 58.5 MB


-------------------------------------------------------------------------------
                          DFT DISPERSION CORRECTION                            
                                                                               
                              DFTD3 V3.1  Rev 1                                
                              USING zero damping                               
-------------------------------------------------------------------------------
-------------------------   ----------------
Dispersion correction           -0.000007148
-------------------------   ----------------


-------------------------   --------------------
FINAL SINGLE POINT ENERGY       -39.803344591128
-------------------------   --------------------



           ************************************************************
           *        Program running with 18 parallel MPI-processes    *
           *              working on a common directory               *
           ************************************************************
------------------------------------------------------------------------------
                         ORCA SCF GRADIENT CALCULATION
------------------------------------------------------------------------------

 ... reading COSX grid (gridx3)
Gradient of the Kohn-Sham DFT energy:
Kohn-Sham wavefunction type      ... UKS
Hartree-Fock exchange scaling    ...    0.196
Number of operators              ...    2
Number of atoms                  ...    4
Basis set dimensions             ...   64
Integral neglect threshold       ... 2.5e-11
Integral primitive cutoff        ... 2.5e-12
SHARK Integral package           ... ON

Nuc. rep. gradient       (SHARK) ... done (  0.0 sec)
HCore & Overlap gradient (SHARK) ... done (  0.0 sec)
RI-J gradient            (SHARK) ... done (  0.2 sec)
COSX-gradient                    ... done (  0.1 sec)
Exchange-correlation gradient    ... done
Dispersion correction            ... done

------------------
CARTESIAN GRADIENT
------------------

WARNING: THERE ARE 3 CONSTRAINED CARTESIAN COORDINATES
   1   C   :   -0.000099771   -0.000000012    0.085382027
   2   H   :   -0.016811481   -0.000000005   -0.028490627
   3   H   :    0.008421469   -0.014507655   -0.028435367
   4   H   :    0.008421463    0.014507635   -0.028435386

Difference to translation invariance:
           :   -0.0000683191   -0.0000000366    0.0000206473

Difference to rotation invariance:
           :    0.0000000050    0.0000666771    0.0000000016

Norm of the cartesian gradient     ...    0.1027831172
RMS gradient                       ...    0.0296709302
MAX gradient                       ...    0.0853820270

-------
TIMINGS
-------

Total SCF gradient time            ...        0.835 sec

One electron gradient       ....       0.006 sec  (  0.7%)
RI-J Coulomb gradient       ....       0.187 sec  ( 22.4%)
COSX gradient               ....       0.146 sec  ( 17.5%)
XC gradient                 ....       0.064 sec  (  7.6%)

Maximum memory used throughout the entire SCFGRAD-calculation: 33.6 MB
------------------------------------------------------------------------------
                         ORCA GEOMETRY RELAXATION STEP
------------------------------------------------------------------------------

Reading the OPT-File                    .... done
Getting information on internals        .... done
Copying old internal coords+grads       .... done
Making the new internal coordinates     .... (new redundants).... done
Validating the new internal coordinates .... (new redundants).... done
Calculating the B-matrix                .... done
Calculating the G,G- and P matrices     .... done
Transforming gradient to internals      .... done
Projecting the internal gradient        .... done
Number of atoms                         ....   4
Number of internal coordinates          ....   7
Current Energy                          ....   -39.803344591 Eh
Current gradient norm                   ....     0.102783117 Eh/bohr
Maximum allowed component of the step   ....  0.300
Current trust radius                    ....  0.300
Updating the Hessian (BFGS)             .... done
Forming the augmented Hessian           .... done
Diagonalizing the augmented Hessian     .... done
Last element of RFO vector              ....  0.999994650
Lowest eigenvalues of augmented Hessian:
 -0.000003803  0.355449143  0.373574723  0.373577019 999.999999988
Length of the computed step             ....  0.003271080
The final length of the internal step   ....  0.003271080
Converting the step to cartesian space:
 Initial RMS(Int)=    0.0012363519
Transforming coordinates:
 Iter   0:  RMS(Cart)=    0.0008548533 RMS(Int)=    0.0012363519
 Iter   1:  RMS(Cart)=    0.0000000000 RMS(Int)=    0.0000000001
Imposing constraints:
 Iter   0:  RMS(Cart)=    0.0000000004 RMS(Int)=    0.0000000008
CONVERGED
done
Storing new coordinates                 .... done

                                .--------------------.
          ----------------------|Geometry convergence|-------------------------
          Item                value                   Tolerance       Converged
          ---------------------------------------------------------------------
          Energy change      -0.0006936395            0.0000050000      NO
          RMS gradient        0.0004394602            0.0001000000      NO
          MAX gradient        0.0006761694            0.0003000000      NO
          RMS step            0.0012363519            0.0020000000      YES
          MAX step            0.0019023438            0.0040000000      YES
          ........................................................
          Max(Bonds)      0.0010      Max(Angles)    0.00
          Max(Dihed)        0.00      Max(Improp)    0.00
          ---------------------------------------------------------------------

The optimization has not yet converged - more geometry cycles are needed


    ---------------------------------------------------------------------------
                         Redundant Internal Coordinates
                            (Angstroem and degrees)

        Definition                    Value    dE/dq     Step     New-Value
    ----------------------------------------------------------------------------
     1. B(H   1,C   0)                1.0982 -0.000661  0.0010    1.0992   
     2. B(H   2,C   0)                1.0983 -0.000676  0.0010    1.0993   
     3. B(H   3,C   0)                1.0983 -0.000676  0.0010    1.0993   
     4. A(H   2,C   0,H   3)           98.00 -0.047847    0.00     98.00 C 
     5. A(H   1,C   0,H   2)           98.00 -0.022064    0.00     98.00 C 
     6. A(H   1,C   0,H   3)           98.00 -0.022064    0.00     98.00 C 
     7. I(H   1,H   3,H   2,C   0)     77.75  0.040054   -0.00     77.75   
    ----------------------------------------------------------------------------

         *************************************************************
         *                GEOMETRY OPTIMIZATION CYCLE   3            *
         *************************************************************
---------------------------------
CARTESIAN COORDINATES (ANGSTROEM)
---------------------------------
  C      0.000008    0.000000    0.007080
  H      0.957944    0.000000   -0.532054
  H     -0.478976    0.829620   -0.532059
  H     -0.478976   -0.829620   -0.532059

----------------------------
CARTESIAN COORDINATES (A.U.)
----------------------------
  NO LB      ZA    FRAG     MASS         X           Y           Z
   0 C     6.0000    0    12.011    0.000016    0.000000    0.013380
   1 H     1.0000    0     1.008    1.810252    0.000000   -1.005436
   2 H     1.0000    0     1.008   -0.905134    1.567755   -1.005445
   3 H     1.0000    0     1.008   -0.905134   -1.567755   -1.005445

--------------------------------
INTERNAL COORDINATES (ANGSTROEM)
--------------------------------
 C      0   0   0     0.000000000000     0.00000000     0.00000000
 H      1   0   0     1.099230095051     0.00000000     0.00000000
 H      1   2   0     1.099257298106    98.00000012     0.00000000
 H      1   2   3     1.099257299730    98.00000012    99.30405943

---------------------------
INTERNAL COORDINATES (A.U.)
---------------------------
 C      0   0   0     0.000000000000     0.00000000     0.00000000
 H      1   0   0     2.077243837811     0.00000000     0.00000000
 H      1   2   0     2.077295244135    98.00000012     0.00000000
 H      1   2   3     2.077295247204    98.00000012    99.30405943



           ************************************************************
           *        Program running with 18 parallel MPI-processes    *
           *              working on a common directory               *
           ************************************************************
------------------------------------------------------------------------------
                   ___                                                        
                  /   \      - P O W E R E D   B Y -                         
                 /     \                                                     
                 |  |  |   _    _      __       _____    __    __             
                 |  |  |  | |  | |    /  \     |  _  \  |  |  /  |          
                  \  \/   | |  | |   /    \    | | | |  |  | /  /          
                 / \  \   | |__| |  /  /\  \   | |_| |  |  |/  /          
                |  |  |   |  __  | /  /__\  \  |    /   |      \           
                |  |  |   | |  | | |   __   |  |    \   |  |\   \          
                \     /   | |  | | |  |  |  |  | |\  \  |  | \   \       
[...]
  ZA   - Total nuclear charge
  QA   - Mulliken gross atomic charge
  VA   - Mayer's total valence
  BVA  - Mayer's bonded valence
  FA   - Mayer's free valence

  ATOM       NA         ZA         QA         VA         BVA        FA
  0 C      6.6617     6.0000    -0.6617     3.8438     3.0584     0.7854
  1 H      0.7797     1.0000     0.2203     1.0135     1.0123     0.0011
  2 H      0.7793     1.0000     0.2207     1.0129     1.0117     0.0011
  3 H      0.7793     1.0000     0.2207     1.0129     1.0117     0.0011

  Mayer bond orders larger than 0.100000
B(  0-C ,  1-H ) :   1.0198 B(  0-C ,  2-H ) :   1.0193 B(  0-C ,  3-H ) :   1.0193 


-------
TIMINGS
-------

Total SCF time: 0 days 0 hours 0 min 9 sec 

Total time                  ....       9.481 sec
Sum of individual times     ....       7.793 sec  ( 82.2%)

Fock matrix formation       ....       6.058 sec  ( 63.9%)
  Split-RI-J                ....       0.657 sec  ( 10.8% of F)
  Chain of spheres X        ....       0.864 sec  ( 14.3% of F)
  XC integration            ....       1.190 sec  ( 19.6% of F)
    Basis function eval.    ....       0.025 sec  (  2.1% of XC)
    Density eval.           ....       0.029 sec  (  2.4% of XC)
    XC-Functional eval.     ....       0.030 sec  (  2.5% of XC)
    XC-Potential eval.      ....       0.031 sec  (  2.6% of XC)
Diagonalization             ....       0.125 sec  (  1.3%)
Density matrix formation    ....       0.014 sec  (  0.1%)
Population analysis         ....       0.452 sec  (  4.8%)
Initial guess               ....       0.010 sec  (  0.1%)
Orbital Transformation      ....       0.000 sec  (  0.0%)
Orbital Orthonormalization  ....       0.002 sec  (  0.0%)
DIIS solution               ....       0.396 sec  (  4.2%)
Grid generation             ....       0.739 sec  (  7.8%)

Maximum memory used throughout the entire SCF-calculation: 58.5 MB


-------------------------------------------------------------------------------
                          DFT DISPERSION CORRECTION                            
                                                                               
                              DFTD3 V3.1  Rev 1                                
                              USING zero damping                               
-------------------------------------------------------------------------------
The omegaB97X-D3 functional is recognized. Fit by Chai et al.
Active option DFTDOPT                   ...         3   

molecular C6(AA) [au] = 107.007403 


            DFT-D V3
 parameters
 s6 scaling factor         :     1.0000 
 rs6 scaling factor        :     1.2810 
 s8 scaling factor         :     1.0000 
 rs8 scaling factor        :     1.0940 
 Damping factor alpha6     :    14.0000 
 Damping factor alpha8     :    16.0000 
 ad hoc parameters k1-k3   :    16.0000     1.3333    -4.0000 

 Edisp/kcal,au: -0.004520290779  -0.000007203541 
 E6   /kcal   :  -0.000702665 
 E8   /kcal   :  -0.003817625 
 % E8         :  84.455307544 

-------------------------   ----------------
Dispersion correction           -0.000007204
-------------------------   ----------------


-------------------------   --------------------
FINAL SINGLE POINT ENERGY       -39.803346643300
-------------------------   --------------------

                                *** OPTIMIZATION RUN DONE ***

                            ***************************************
                            *     ORCA property calculations      *
                            ***************************************

                                    ---------------------
                                    Active property flags
                                    ---------------------
   (+) Dipole Moment


------------------------------------------------------------------------------
                       ORCA ELECTRIC PROPERTIES CALCULATION
------------------------------------------------------------------------------

Dipole Moment Calculation                       ... on
Quadrupole Moment Calculation                   ... off
Polarizability Calculation                      ... off
GBWName                                         ... /beegfs/scratch/ispackman/PFAS_EPR_calcs/benchmark/JChemEd_CF3_radical/CH3_radical_98.0_degrees_IN-PROGRESS/CH3_radical_98.0_degrees.gbw
Electron density                                ... /beegfs/scratch/ispackman/PFAS_EPR_calcs/benchmark/JChemEd_CF3_radical/CH3_radical_98.0_degrees_IN-PROGRESS/CH3_radical_98.0_degrees.scfp
The origin for moment calculation is the CENTER OF MASS  = ( 0.000013,  0.000000 -0.191509)

-------------
DIPOLE MOMENT
-------------
                                X             Y             Z
Electronic contribution:      0.00006      -0.00000       0.90242
Nuclear contribution   :     -0.00003      -0.00000      -1.21228
                        -----------------------------------------
Total Dipole Moment    :      0.00003      -0.00000      -0.30986
                        -----------------------------------------
Magnitude (a.u.)       :      0.30986
Magnitude (Debye)      :      0.78761



--------------------
Rotational spectrum 
--------------------
 
Rotational constants in cm-1:     8.066228     8.066034     6.074099 
Rotational constants in MHz : 241819.434123 241813.601854 182096.909797 

 Dipole components along the rotational axes: 
x,y,z [a.u.] :     0.000000     0.000022    -0.309864 
x,y,z [Debye]:     0.000000     0.000056    -0.787612 

 


           ************************************************************
           *        Program running with 18 parallel MPI-processes    *
           *              working on a common directory               *
           ************************************************************

-------------------------------------------------------------------------------
                               ORCA SCF HESSIAN
-------------------------------------------------------------------------------

                   --------- SHARK INITIALIZATION DONE ---------

Hessian of the Kohn-Sham DFT energy:
Kohn-Sham wavefunction type                      ... UKS
Hartree-Fock exchange scaling                    ...    0.196
Number of operators                              ...    2
Number of atoms                                  ...    4
Basis set dimensions                             ...   64
Integral neglect threshold                       ... 2.5e-11
Integral primitive cutoff                        ... 2.5e-12

Setting up DFT Hessian calculations              ... 

HESS GRID
---------

General Integration Accuracy     IntAcc      ... 4.629
Radial Grid Type                 RadialGrid  ... OptM3 with GC (2021)
Angular Grid (max. ang.)         AngularGrid ... 5 (Lebedev-434)
Angular grid pruning method      GridPruning ... 4 (adaptive)
Weight generation scheme         WeightScheme... Becke
Basis function cutoff            BFCut       ... 1.0000e-11
Integration weight cutoff        WCut        ... 1.0000e-14
Angular grids for H and He will be reduced by one unit
Partially contracted basis set               ... off
Rotationally invariant grid construction     ... off

Total number of grid points                  ...    27264
Total number of batches                      ...      429
Average number of points per batch           ...       63
Average number of grid points per atom       ...     6816

Building densities                               ... done   (      0.0 sec)
Calculating rho(r) on the grid                   ... done   (      0.1 sec)
Building xc-kernel on the grid                   ... done   (      0.1 sec)
                                                     done   (      0.4 sec)

Nuclear repulsion Hessian  (SHARK)               ... done   (      0.0 sec)

----------------------------------------------
Forming right-hand sides of CP-SCF equations     ...
----------------------------------------------
One electron integral derivatives  (SHARK)       ... done   (      0.0 sec)
Transforming the overlap derivative matrices     ... done   (      0.0 sec)
Making the Q(x) pseudodensities                  ... done   (      0.0 sec)
Adding the E*S(x)*S(y) terms to the Hessian      ... done   (      0.0 sec)
Calculating energy weighted overlap derivatives  ... done   (      0.1 sec)
Two electron integral derivatives (SHARK-RI)     ... done   (      0.6 sec)
Exchange-correlation integral derivatives        ... done   (      0.4 sec)
tr(F(y)Q(x)) contribution to the Hessian         ... done   (      0.0 sec)
Response fock operator R(S(x)) (SHARK-RIJCOSX)   ... done   (      0.7 sec)
XC Response fock operator R(S(x))                ... done   (      0.1 sec)
tr(F(y)S(x)) contribution to the Hessian         ... done   (      0.0 sec)
Transforming and finalizing RHSs                 ... done   (      0.0 sec)

----------------------------------------------
Solving the CP-SCF equations (RIJCOSX)           ...
----------------------------------------------
     CP-SCF ITERATION   0:   1.3116e-01 (   0.4 sec   0/ 12 done)
     CP-SCF ITERATION   1:   3.1078e-02 (   0.4 sec   0/ 12 done)
     CP-SCF ITERATION   2:   1.1574e-02 (   0.4 sec   0/ 12 done)
     CP-SCF ITERATION   3:   3.9363e-03 (   0.4 sec   0/ 12 done)
     CP-SCF ITERATION   4:   6.2515e-04 (   0.4 sec   1/ 12 done)
     CP-SCF ITERATION   5:   1.4468e-04 (   0.4 sec   5/ 12 done)
     CP-SCF ITERATION   6:   3.1765e-05 (   0.3 sec  12/ 12 done)
                    *** THE CP-SCF HAS CONVERGED ***

                                                 ... done   (      3.2 sec)
Forming perturbed density Hessian contributions  ... done   (      0.0 sec)
2nd integral derivative contribs (SHARK-RI)      ... done   (      0.9 sec)
Exchange-correlation Hessian                     ... done   (      0.3 sec)
Dispersion correction in the Hessian             ... done   (      0.1 sec)
Dipole derivatives                               ... (center of mass:  0.000013,  0.000000 -0.191509)done   (      0.2 sec)

Total SCF Hessian time: 0 days 0 hours 0 min 7 sec 

Writing the Hessian file to the disk             ... done


Maximum memory used throughout the entire SCFHESS-calculation: 109.4 MB

-----------------------
VIBRATIONAL FREQUENCIES
-----------------------

Scaling factor for frequencies =  1.000000000  (already applied!)

   0:         0.00 cm**-1
   1:         0.00 cm**-1
   2:         0.00 cm**-1
   3:         0.00 cm**-1
   4:         0.00 cm**-1
   5:         0.00 cm**-1
   6:      1345.63 cm**-1
   7:      1385.70 cm**-1
   8:      1387.16 cm**-1
   9:      3041.70 cm**-1
  10:      3065.36 cm**-1
  11:      3065.58 cm**-1


------------
NORMAL MODES
------------

These modes are the Cartesian displacements weighted by the diagonal matrix
M(i,i)=1/sqrt(m[i]) where m[i] is the mass of the displaced atom
Thus, these vectors are normalized but *not* orthogonal

                  0          1          2          3          4          5    
      0       0.000000   0.000000   0.000000   0.000000   0.000000   0.000000
      1       0.000000   0.000000   0.000000   0.000000   0.000000   0.000000
      2       0.000000   0.000000   0.000000   0.000000   0.000000   0.000000
      3       0.000000   0.000000   0.000000   0.000000   0.000000   0.000000
      4       0.000000   0.000000   0.000000   0.000000   0.000000   0.000000
      5       0.000000   0.000000   0.000000   0.000000   0.000000   0.000000
      6       0.000000   0.000000   0.000000   0.000000   0.000000   0.000000
      7       0.000000   0.000000   0.000000   0.000000   0.000000   0.000000
      8       0.000000   0.000000   0.000000   0.000000   0.000000   0.000000
      9       0.000000   0.000000   0.000000   0.000000   0.000000   0.000000
     10       0.000000   0.000000   0.000000   0.000000   0.000000   0.000000
     11       0.000000   0.000000   0.000000   0.000000   0.000000   0.000000
                  6          7          8          9         10         11    
      0      -0.002604   0.000006   0.069859   0.000787  -0.084119  -0.000042
      1      -0.000001  -0.069936   0.000006  -0.000001  -0.000042   0.084090
      2       0.127330  -0.000001   0.004277  -0.056528  -0.000527  -0.000001
      3      -0.274485   0.000017   0.166942  -0.537586   0.714388   0.000350
      4       0.000006   0.731287  -0.000067  -0.000000  -0.000026   0.051687
      5      -0.517397   0.000031   0.295339   0.228045  -0.373982  -0.000183
      6       0.152762   0.392689  -0.499717   0.264103   0.143805   0.334088
      7      -0.217079   0.050990  -0.400430  -0.456640  -0.338083  -0.527013
      8      -0.499913  -0.270787  -0.173129   0.222761   0.189972   0.325676
      9       0.152756  -0.392783  -0.499645   0.264109   0.144137  -0.333940
     10       0.217079   0.051060   0.400420   0.456649   0.338606  -0.526669
     11      -0.499909   0.270762  -0.173179   0.222767   0.190295  -0.325483


-----------
IR SPECTRUM
-----------

 Mode   freq       eps      Int      T**2         TX        TY        TZ
       cm**-1   L/(mol*cm) km/mol    a.u.
----------------------------------------------------------------------------
  6:   1345.63   0.001413    7.14  0.000328  ( 0.000647  0.000000 -0.018088)
  7:   1385.70   0.001031    5.21  0.000232  (-0.000001  0.015235  0.000000)
  8:   1387.16   0.001058    5.35  0.000238  (-0.015413 -0.000001 -0.000688)
  9:   3041.70   0.000016    0.08  0.000002  ( 0.000329 -0.000000 -0.001230)
 10:   3065.36   0.007877   39.81  0.000802  (-0.028318 -0.000014 -0.000063)
 11:   3065.58   0.008044   40.65  0.000819  (-0.000014  0.028615 -0.000000)

* The epsilon (eps) is given for a Dirac delta lineshape.
** The dipole moment derivative (T) already includes vibrational overlap.

The first frequency considered to be a vibration is 6
The total number of vibrations considered is 6


--------------------------
THERMOCHEMISTRY AT 298.15K
--------------------------

Temperature         ... 298.15 K
Pressure            ... 1.00 atm
Total Mass          ... 15.03 AMU

Throughout the following assumptions are being made:
  (1) The electronic state is orbitally nondegenerate
      but the spin degeneracy is treated
  (2) There are no thermally accessible electronically excited states
  (3) Hindered rotations indicated by low frequency modes are not
      treated as such but are treated as vibrations and this may
      cause some error
  (4) All equations used are the standard statistical mechanics
      equations for an ideal gas
  (5) All vibrations are strictly harmonic

freq.    1345.63  E(vib)   ...       0.01 
freq.    1385.70  E(vib)   ...       0.00 
freq.    1387.16  E(vib)   ...       0.00 
freq.    3041.70  E(vib)   ...       0.00 
freq.    3065.36  E(vib)   ...       0.00 
freq.    3065.58  E(vib)   ...       0.00 

------------
INNER ENERGY
------------

The inner energy is: U= E(el) + E(ZPE) + E(vib) + E(rot) + E(trans)
    E(el)   - is the total energy from the electronic structure calculation
              = E(kin-el) + E(nuc-el) + E(el-el) + E(nuc-nuc)
    E(ZPE)  - the the zero temperature vibrational energy from the frequency calculation
    E(vib)  - the the finite temperature correction to E(ZPE) due to population
              of excited vibrational states
    E(rot)  - is the rotational thermal energy
    E(trans)- is the translational thermal energy

Summary of contributions to the inner energy U:
Electronic energy                ...    -39.80334664 Eh
Zero point energy                ...      0.03027942 Eh      19.00 kcal/mol
Thermal vibrational correction   ...      0.00002503 Eh       0.02 kcal/mol
Thermal rotational correction    ...      0.00141627 Eh       0.89 kcal/mol
Thermal translational correction ...      0.00141627 Eh       0.89 kcal/mol
-----------------------------------------------------------------------
Total thermal energy                    -39.77020964 Eh


Summary of corrections to the electronic energy:
(perhaps to be used in another calculation)
Total thermal correction                  0.00285757 Eh       1.79 kcal/mol
Non-thermal (ZPE) correction              0.03027942 Eh      19.00 kcal/mol
-----------------------------------------------------------------------
Total correction                          0.03313700 Eh      20.79 kcal/mol


--------
ENTHALPY
--------

The enthalpy is H = U + kB*T
                kB is Boltzmann's constant
Total free energy                 ...    -39.77020964 Eh 
Thermal Enthalpy correction       ...      0.00094421 Eh       0.59 kcal/mol
-----------------------------------------------------------------------
Total Enthalpy                    ...    -39.76926544 Eh


Note: Rotational entropy computed according to Herzberg 
Infrared and Raman Spectra, Chapter V,1, Van Nostrand Reinhold, 1945 
Point Group:  C3v, Symmetry Number:   3  
Rotational constants in cm-1:     8.066228     8.066034     6.074099 

Vibrational entropy computed according to the QRRHO of S. Grimme
Chem.Eur.J. 2012 18 9955


-------
ENTROPY
-------

The entropy contributions are T*S = T*(S(el)+S(vib)+S(rot)+S(trans))
     S(el)   - electronic entropy
     S(vib)  - vibrational entropy
     S(rot)  - rotational entropy
     S(trans)- translational entropy
The entropies will be listed as multiplied by the temperature to get
units of energy

Electronic entropy                ...      0.00065446 Eh      0.41 kcal/mol
Vibrational entropy               ...      0.00002882 Eh      0.02 kcal/mol
Rotational entropy                ...      0.00565071 Eh      3.55 kcal/mol
Translational entropy             ...      0.01618771 Eh     10.16 kcal/mol
-----------------------------------------------------------------------
Final entropy term                ...      0.02252169 Eh     14.13 kcal/mol

In case the symmetry of your molecule has not been determined correctly
or in case you have a reason to use a different symmetry number we print 
out the resulting rotational entropy values for sn=1,12 :
 --------------------------------------------------------
|  sn= 1 | S(rot)=       0.00668800 Eh      4.20 kcal/mol|
|  sn= 2 | S(rot)=       0.00603354 Eh      3.79 kcal/mol|
|  sn= 3 | S(rot)=       0.00565071 Eh      3.55 kcal/mol|
|  sn= 4 | S(rot)=       0.00537909 Eh      3.38 kcal/mol|
|  sn= 5 | S(rot)=       0.00516840 Eh      3.24 kcal/mol|
|  sn= 6 | S(rot)=       0.00499626 Eh      3.14 kcal/mol|
|  sn= 7 | S(rot)=       0.00485071 Eh      3.04 kcal/mol|
|  sn= 8 | S(rot)=       0.00472463 Eh      2.96 kcal/mol|
|  sn= 9 | S(rot)=       0.00461342 Eh      2.89 kcal/mol|
|  sn=10 | S(rot)=       0.00451394 Eh      2.83 kcal/mol|
|  sn=11 | S(rot)=       0.00442395 Eh      2.78 kcal/mol|
|  sn=12 | S(rot)=       0.00434180 Eh      2.72 kcal/mol|
 --------------------------------------------------------


-------------------
GIBBS FREE ENERGY
-------------------

The Gibbs free energy is G = H - T*S

Total enthalpy                    ...    -39.76926544 Eh 
Total entropy correction          ...     -0.02252169 Eh    -14.13 kcal/mol
-----------------------------------------------------------------------
Final Gibbs free energy         ...    -39.79178713 Eh

For completeness - the Gibbs free energy minus the electronic energy
G-E(el)                           ...      0.01155951 Eh      7.25 kcal/mol


Timings for individual modules:

Sum of individual times         ...       97.909 sec (=   1.632 min)
GTO integral calculation        ...       13.586 sec (=   0.226 min)  13.9 %
SCF iterations                  ...       63.280 sec (=   1.055 min)  64.6 %
SCF Gradient evaluation         ...       10.655 sec (=   0.178 min)  10.9 %
Geometry relaxation             ...        0.214 sec (=   0.004 min)   0.2 %
Analytical frequency calculation...       10.173 sec (=   0.170 min)  10.4 %
                             ****ORCA TERMINATED NORMALLY****
TOTAL RUN TIME: 0 days 0 hours 1 minutes 52 seconds 154 msec

slurmID:    32260138
totalRuntime[s]:    112.208837764
