
                                 *****************
                                 * O   R   C   A *
                                 *****************

                                            #,                                       
                                            ###                                      
                                            ####                                     
                                            #####                                    
                                            ######                                   
                                           ########,                                 
                                     ,,################,,,,,                         
                               ,,#################################,,                 
                          ,,##########################################,,             
                       ,#########################################, ''#####,          
                    ,#############################################,,   '####,        
                  ,##################################################,,,,####,       
                ,###########''''           ''''###############################       
              ,#####''   ,,,,##########,,,,          '''####'''          '####       
            ,##' ,,,,###########################,,,                        '##       
           ' ,,###''''                  '''############,,,                           
         ,,##''                                '''############,,,,        ,,,,,,###''
      ,#''                                            '''#######################'''  
     '                                                          ''''####''''         
             ,#######,   #######,   ,#######,      ##                                
            ,#'     '#,  ##    ##  ,#'     '#,    #''#        ######   ,####,        
            ##       ##  ##   ,#'  ##            #'  '#       #        #'  '#        
            ##       ##  #######   ##           ,######,      #####,   #    #        
            '#,     ,#'  ##    ##  '#,     ,#' ,#      #,         ##   #,  ,#        
             '#######'   ##     ##  '#######'  #'      '#     #####' # '####'        



                  #######################################################
                  #                        -***-                        #
                  #          Department of theory and spectroscopy      #
                  #    Directorship and core code : Frank Neese         #
                  #        Max Planck Institute fuer Kohlenforschung    #
                  #                Kaiser Wilhelm Platz 1               #
                  #                 D-45470 Muelheim/Ruhr               #
                  #                      Germany                        #
                  #                                                     #
                  #                  All rights reserved                #
                  #                        -***-                        #
                  #######################################################


                         Program Version 5.0.4 -  RELEASE  -


 With contributions from (in alphabetic order):
   Daniel Aravena         : Magnetic Suceptibility
   Michael Atanasov       : Ab Initio Ligand Field Theory (pilot matlab implementation)
   Alexander A. Auer      : GIAO ZORA, VPT2 properties, NMR spectrum
   Ute Becker             : Parallelization
   Giovanni Bistoni       : ED, misc. LED, open-shell LED, HFLD
   Martin Brehm           : Molecular dynamics
   Dmytro Bykov           : SCF Hessian
   Vijay G. Chilkuri      : MRCI spin determinant printing, contributions to CSF-ICE
   Dipayan Datta          : RHF DLPNO-CCSD density
   Achintya Kumar Dutta   : EOM-CC, STEOM-CC
   Dmitry Ganyushin       : Spin-Orbit,Spin-Spin,Magnetic field MRCI
   Miquel Garcia          : C-PCM and meta-GGA Hessian, CC/C-PCM, Gaussian charge scheme
   Yang Guo               : DLPNO-NEVPT2, F12-NEVPT2, CIM, IAO-localization
   Andreas Hansen         : Spin unrestricted coupled pair/coupled cluster methods
   Benjamin Helmich-Paris : MC-RPA, TRAH-SCF, COSX integrals
   Lee Huntington         : MR-EOM, pCC
   Robert Izsak           : Overlap fitted RIJCOSX, COSX-SCS-MP3, EOM
   Marcus Kettner         : VPT2
   Christian Kollmar      : KDIIS, OOCD, Brueckner-CCSD(T), CCSD density, CASPT2, CASPT2-K
   Simone Kossmann        : Meta GGA functionals, TD-DFT gradient, OOMP2, MP2 Hessian
   Martin Krupicka        : Initial AUTO-CI
   Lucas Lang             : DCDCAS
   Marvin Lechner         : AUTO-CI (C++ implementation), FIC-MRCC
   Dagmar Lenk            : GEPOL surface, SMD
   Dimitrios Liakos       : Extrapolation schemes; Compound Job, initial MDCI parallelization
   Dimitrios Manganas     : Further ROCIS development; embedding schemes
   Dimitrios Pantazis     : SARC Basis sets
   Anastasios Papadopoulos: AUTO-CI, single reference methods and gradients
   Taras Petrenko         : DFT Hessian,TD-DFT gradient, ASA, ECA, R-Raman, ABS, FL, XAS/XES, NRVS
   Peter Pinski           : DLPNO-MP2, DLPNO-MP2 Gradient
   Christoph Reimann      : Effective Core Potentials
   Marius Retegan         : Local ZFS, SOC
   Christoph Riplinger    : Optimizer, TS searches, QM/MM, DLPNO-CCSD(T), (RO)-DLPNO pert. Triples
   Tobias Risthaus        : Range-separated hybrids, TD-DFT gradient, RPA, STAB
   Michael Roemelt        : Original ROCIS implementation
   Masaaki Saitow         : Open-shell DLPNO-CCSD energy and density
   Barbara Sandhoefer     : DKH picture change effects
   Avijit Sen             : IP-ROCIS
   Kantharuban Sivalingam : CASSCF convergence, NEVPT2, FIC-MRCI
   Bernardo de Souza      : ESD, SOC TD-DFT
   Georgi Stoychev        : AutoAux, RI-MP2 NMR, DLPNO-MP2 response
   Willem Van den Heuvel  : Paramagnetic NMR
   Boris Wezisla          : Elementary symmetry handling
   Frank Wennmohs         : Technical directorship


 We gratefully acknowledge several colleagues who have allowed us to
 interface, adapt or use parts of their codes:
   Stefan Grimme, W. Hujo, H. Kruse, P. Pracht,  : VdW corrections, initial TS optimization,
                  C. Bannwarth, S. Ehlert          DFT functionals, gCP, sTDA/sTD-DF
   Ed Valeev, F. Pavosevic, A. Kumar             : LibInt (2-el integral package), F12 methods
   Garnet Chan, S. Sharma, J. Yang, R. Olivares  : DMRG
   Ulf Ekstrom                                   : XCFun DFT Library
   Mihaly Kallay                                 : mrcc  (arbitrary order and MRCC methods)
   Jiri Pittner, Ondrej Demel                    : Mk-CCSD
   Frank Weinhold                                : gennbo (NPA and NBO analysis)
   Christopher J. Cramer and Donald G. Truhlar   : smd solvation model
   Lars Goerigk                                  : TD-DFT with DH, B97 family of functionals
   V. Asgeirsson, H. Jonsson                     : NEB implementation
   FAccTs GmbH                                   : IRC, NEB, NEB-TS, DLPNO-Multilevel, CI-OPT
                                                   MM, QMMM, 2- and 3-layer-ONIOM, Crystal-QMMM,
                                                   LR-CPCM, SF, NACMEs, symmetry and pop. for TD-DFT,
                                                   nearIR, NL-DFT gradient (VV10), updates on ESD,
                                                   ML-optimized integration grids
   S Lehtola, MJT Oliveira, MAL Marques          : LibXC Library
   Liviu Ungur et al                             : ANISO software


 Your calculation uses the libint2 library for the computation of 2-el integrals
 For citations please refer to: http://libint.valeyev.net

 Your ORCA version has been built with support for libXC version: 5.1.0
 For citations please refer to: https://tddft.org/programs/libxc/

 This ORCA versions uses:
   CBLAS   interface :  Fast vector & matrix operations
   LAPACKE interface :  Fast linear algebra routines
   SCALAPACK package :  Parallel linear algebra routines
   Shared memory     :  Shared parallel matrices
   BLAS/LAPACK       :  OpenBLAS 0.3.15  USE64BITINT DYNAMIC_ARCH NO_AFFINITY SkylakeX SINGLE_THREADED
        Core in use  :  SkylakeX
   Copyright (c) 2011-2014, The OpenBLAS Project


Your calculation utilizes the atom-pairwise dispersion correction
with the zero-damping scheme (D30)
Cite in your paper:
S.Grimme, J.Antony, S.Ehrlich and H.Krieg, J.Chem.Phys., 132, (2010), 154104 
   

XCFun DFT library Copyright 2009-2010 Ulf Ekstrom and contributors.
See http://admol.org/xcfun for more information.
This is free software; see the source code for copying conditions.
There is ABSOLUTELY NO WARRANTY; not even for MERCHANTABILITY or FITNESS FOR A PARTICULAR PURPOSE.
For details see the documentation.
Scientific users of this library should cite U. Ekstrom, L. Visscher, R. Bast, A. J. Thorvaldsen and K. Ruud;
J.Chem.Theor.Comp. 2010, DOI: 10.1021/ct100117s
XCFun Version 0.99 

================================================================================

----- Orbital basis set information -----
Your calculation utilizes the basis: def2-TZVPD
   F. Weigend and R. Ahlrichs, Phys. Chem. Chem. Phys. 7, 3297 (2005).
   D. Rappoport and F. Furche, J. Chem. Phys. 133 134105 (2010).

----- AuxJ basis set information -----
Your calculation utilizes the auxiliary basis: def2/J
   F. Weigend, Phys. Chem. Chem. Phys. 8, 1057 (2006).

================================================================================
                                        WARNINGS
                       Please study these warnings very carefully!
================================================================================


WARNING: Geometry Optimization
  ===> : Switching off AutoStart
         For restart on a previous wavefunction, please use MOREAD

INFO   : the flag for use of the SHARK integral package has been found!

================================================================================
                                       INPUT FILE
================================================================================
NAME = /beegfs/scratch/ispackman/PFAS_EPR_calcs/benchmark/JChemEd_CF3_radical/CH3_radical_110.5_degrees_IN-PROGRESS/CH3_radical_110.5_degrees.inp
|  1> ! UKS TightSCF wB97x-D3 def2-TZVPD xyzfile opt freq
|  2> 
|  3> # CH3 radical 110.5 degrees fixed
|  4> 
|  5> %maxcore 1000
|  6> %pal
|  7> nprocs 18
|  8> end
|  9> 
| 10> %geom Constraints
| 11>         { A * 0 * C }
| 12>     end
| 13> end
| 14> * xyz 0 2
| 15> C 0.00 0.00 0.00
| 16> H 1.0246566545 0.0000000000 -0.3412898187
| 17> H -0.5123283273 0.8873786930 -0.3412898187
| 18> H -0.5123283273 -0.8873786930 -0.3412898187
| 19> **                         ****END OF INPUT****
================================================================================

                       *****************************
                       * Geometry Optimization Run *
                       *****************************

Geometry optimization settings:
Update method            Update   .... BFGS
Choice of coordinates    CoordSys .... Z-matrix Internals
Initial Hessian          InHess   .... Almoef's Model

Convergence Tolerances:
Energy Change            TolE     ....  5.0000e-06 Eh
Max. Gradient            TolMAXG  ....  3.0000e-04 Eh/bohr
RMS Gradient             TolRMSG  ....  1.0000e-04 Eh/bohr
Max. Displacement        TolMAXD  ....  4.0000e-03 bohr
RMS Displacement         TolRMSD  ....  2.0000e-03 bohr
Strict Convergence                ....  False
------------------------------------------------------------------------------
                        ORCA OPTIMIZATION COORDINATE SETUP
------------------------------------------------------------------------------

The optimization will be done in new redundant internal coordinates
Making redundant internal coordinates   ...  (new redundants) done
Evaluating the initial hessian          ...  (Almloef) done
Evaluating the coordinates              ...  done
Calculating the B-matrix                .... done
Calculating the G-matrix                .... done
Diagonalizing the G-matrix              .... done
Imposing constraints:
 Iter   0:  RMS(Cart)=    0.0000000000 RMS(Int)=    0.0000000000
CONVERGED
Will constrain atom 0 coordinate 1 
Will constrain atom 0 coordinate 2 
Will constrain atom 1 coordinate 2 
The first mode is                       ....    1
The number of degrees of freedom        ....    6
Storing new coordinates                 .... done

    -----------------------------------------------------------------
                    Redundant Internal Coordinates


    -----------------------------------------------------------------
         Definition                    Initial Value    Approx d2E/dq
    -----------------------------------------------------------------
      1. B(H   1,C   0)                  1.0800         0.373575   
      2. B(H   2,C   0)                  1.0800         0.373575   
      3. B(H   3,C   0)                  1.0800         0.373575   
      4. A(H   2,C   0,H   3)          110.5000         0.294224 C 
      5. A(H   1,C   0,H   2)          110.5000         0.294224 C 
      6. A(H   1,C   0,H   3)          110.5000         0.294224 C 
      7. I(H   1,H   3,H   2,C   0)     52.0915         0.005423   
    -----------------------------------------------------------------

Number of atoms                         .... 4
Number of degrees of freedom            .... 7

         *************************************************************
         *                GEOMETRY OPTIMIZATION CYCLE   1            *
         *************************************************************
---------------------------------
CARTESIAN COORDINATES (ANGSTROEM)
---------------------------------
  C      0.000000    0.000000    0.000000
  H      1.024657    0.000000   -0.341290
  H     -0.512328    0.887379   -0.341290
  H     -0.512328   -0.887379   -0.341290

----------------------------
CARTESIAN COORDINATES (A.U.)
----------------------------
  NO LB      ZA    FRAG     MASS         X           Y           Z
   0 C     6.0000    0    12.011    0.000000    0.000000    0.000000
   1 H     1.0000    0     1.008    1.936320    0.000000   -0.644944
   2 H     1.0000    0     1.008   -0.968160    1.676903   -0.644944
   3 H     1.0000    0     1.008   -0.968160   -1.676903   -0.644944

--------------------------------
INTERNAL COORDINATES (ANGSTROEM)
--------------------------------
 C      0   0   0     0.000000000000     0.00000000     0.00000000
 H      1   0   0     1.079999999981     0.00000000     0.00000000
 H      1   2   0     1.080000000043   110.50000000     0.00000000
 H      1   2   3     1.080000000043   110.50000000   122.61236202

---------------------------
INTERNAL COORDINATES (A.U.)
---------------------------
 C      0   0   0     0.000000000000     0.00000000     0.00000000
 H      1   0   0     2.040904224599     0.00000000     0.00000000
 H      1   2   0     2.040904224716   110.50000000     0.00000000
 H      1   2   3     2.040904224716   110.50000000   122.61236202

---------------------
BASIS SET INFORMATION
---------------------
There are 2 groups of distinct atoms

 Group   1 Type C   : 12s6p3d1f contracted to 6s3p3d1f pattern {621111/411/111/1}
 Group   2 Type H   : 5s2p contracted to 3s2p pattern {311/11}

Atom   0C    basis set group =>   1
Atom   1H    basis set group =>   2
Atom   2H    basis set group =>   2
Atom   3H    basis set group =>   2
---------------------------------
AUXILIARY/J BASIS SET INFORMATION
---------------------------------
There are 2 groups of distinct atoms

 Group   1 Type C   : 12s5p4d2f1g contracted to 6s4p3d1f1g pattern {711111/2111/211/2/1}
 Group   2 Type H   : 5s2p1d contracted to 3s1p1d pattern {311/2/1}

Atom   0C    basis set group =>   1
Atom   1H    basis set group =>   2
Atom   2H    basis set group =>   2
Atom   3H    basis set group =>   2


           ************************************************************
           *        Program running with 18 parallel MPI-processes    *
           *              working on a common directory               *
           ************************************************************
------------------------------------------------------------------------------
                           ORCA GTO INTEGRAL CALCULATION
                           -- RI-GTO INTEGRALS CHOSEN --
------------------------------------------------------------------------------
------------------------------------------------------------------------------
                   ___                                                        
                  /   \      - P O W E R E D   B Y -                         
                 /     \                                                     
                 |  |  |   _    _      __       _____    __    __             
                 |  |  |  | |  | |    /  \     |  _  \  |  |  /  |          
                  \  \/   | |  | |   /    \    | | | |  |  | /  /          
                 / \  \   | |__| |  /  /\  \   | |_| |  |  |/  /          
                |  |  |   |  __  | /  /__\  \  |    /   |      \           
                |  |  |   | |  | | |   __   |  |    \   |  |\   \          
                \     /   | |  | | |  |  |  |  | |\  \  |  | \   \       
                 \___/    |_|  |_| |__|  |__|  |_| \__\ |__|  \__/        
                                                                              
                      - O R C A' S   B I G   F R I E N D -                    
                                      &                                       
                       - I N T E G R A L  F E E D E R -                       
                                                                              
 v1 FN, 2020, v2 2021                                                         
------------------------------------------------------------------------------


Reading SHARK input file /beegfs/scratch/ispackman/PFAS_EPR_calcs/benchmark/JChemEd_CF3_radical/CH3_radical_110.5_degrees_IN-PROGRESS/CH3_radical_110.5_degrees.SHARKINP.tmp ... ok
----------------------
SHARK INTEGRAL PACKAGE
----------------------

Number of atoms                             ...      4
Number of basis functions                   ...     64
Number of shells                            ...     28
Maximum angular momentum                    ...      3
Integral batch strategy                     ... SHARK/LIBINT Hybrid
RI-J (if used) integral strategy            ... SPLIT-RIJ (Revised 2003 algorithm where possible)
Printlevel                                  ...      1
Contraction scheme used                     ... SEGMENTED contraction
Coulomb Range Separation                    ... NOT USED
Exchange Range Separation                   ... Long Range
   Mu parameter                             ...  0.250000
   Scaling (regular/separated)              ...  0.195728  0.804272
Finite Nucleus Model                        ... NOT USED
Auxiliary Coulomb fitting basis             ... AVAILABLE
   # of basis functions in Aux-J            ...     82
   # of shells in Aux-J                     ...     30
   Maximum angular momentum in Aux-J        ...      4
Auxiliary J/K fitting basis                 ... NOT available
Auxiliary Correlation fitting basis         ... NOT available
Auxiliary 'external' fitting basis          ... NOT available
Integral threshold                          ...     2.500000e-11
Primitive cut-off                           ...     2.500000e-12
Primitive pair pre-selection threshold      ...     2.500000e-12

Calculating pre-screening integrals         ... done (  0.0 sec) Dimension = 28
Organizing shell pair data                  ... done (  0.0 sec)
Shell pair information
Total number of shell pairs                 ...       406
Shell pairs after pre-screening             ...       406
Total number of primitive shell pairs       ...       977
Primitive shell pairs kept                  ...       944
          la=0 lb=0:    120 shell pairs
          la=1 lb=0:    135 shell pairs
          la=1 lb=1:     45 shell pairs
          la=2 lb=0:     45 shell pairs
          la=2 lb=1:     27 shell pairs
          la=2 lb=2:      6 shell pairs
          la=3 lb=0:     15 shell pairs
          la=3 lb=1:      9 shell pairs
          la=3 lb=2:      3 shell pairs
          la=3 lb=3:      1 shell pairs

Calculating one electron integrals          ... done (  0.0 sec)
Calculating RI/J V-Matrix + Cholesky decomp.... done (  0.2 sec)
Calculating Nuclear repulsion               ... done (  0.0 sec) ENN=      9.714126416834 Eh

SHARK setup successfully completed in   0.6 seconds

Maximum memory used throughout the entire GTOINT-calculation: 14.0 MB


           ************************************************************
           *        Program running with 18 parallel MPI-processes    *
           *              working on a common directory               *
           ************************************************************
-------------------------------------------------------------------------------
                                 ORCA SCF
-------------------------------------------------------------------------------

------------
SCF SETTINGS
------------
Hamiltonian:
 Density Functional     Method          .... DFT(GTOs)
 Exchange Functional    Exchange        .... WB97X-D3
 Correlation Functional Correlation     .... WB97X-D3
 Gradients option       PostSCFGGA      .... off
 Hybrid DFT is turned on
   Fraction HF Exchange ScalHFX         ....  0.195728
   Scaling of DF-GGA-X  ScalDFX         ....  0.000000
   Scaling of DF-GGA-C  ScalDFC         ....  1.000000
   Scaling of DF-LDA-C  ScalLDAC        ....  1.000000
   Perturbative correction              ....  0.000000
   Density functional embedding theory  .... OFF
 Long-range corrected/Screened/Range-Separated Hybrid DFT is turned on
   Amount of maximum screened exact exchange              ....  0.804272
   Range separation parameter mu (erf(mu*r12)/r12)        ....  0.250000
 RI-approximation to the Coulomb term is turned on
   Number of AuxJ basis functions       .... 82
   RIJ-COSX (HFX calculated with COS-X)).... on


General Settings:
 Integral files         IntName         .... /beegfs/scratch/ispackman/PFAS_EPR_calcs/benchmark/JChemEd_CF3_radical/CH3_radical_110.5_degrees_IN-PROGRESS/CH3_radical_110.5_degrees
 Hartree-Fock type      HFTyp           .... UHF
 Total Charge           Charge          ....    0
 Multiplicity           Mult            ....    2
 Number of Electrons    NEL             ....    9
 Basis Dimension        Dim             ....   64
 Nuclear Repulsion      ENuc            ....      9.7141264168 Eh

Convergence Acceleration:
 DIIS                   CNVDIIS         .... on
   Start iteration      DIISMaxIt       ....    12
   Startup error        DIISStart       ....  0.200000
   # of expansion vecs  DIISMaxEq       ....     5
   Bias factor          DIISBfac        ....   1.050
   Max. coefficient     DIISMaxC        ....  10.000
 Trust-Rad. Augm. Hess. CNVTRAH         .... auto
   Auto Start mean grad. ratio tolernc. ....  1.125000
   Auto Start start iteration           ....    20
   Auto Start num. interpolation iter.  ....    10
   Max. Number of Micro iterations      ....    16
   Max. Number of Macro iterations      .... Maxiter - #DIIS iter
   Number of Davidson start vectors     ....     2
   Converg. threshold I  (grad. norm)   ....   1.000e-05
   Converg. threshold II (energy diff.) ....   1.000e-08
   Grad. Scal. Fac. for Micro threshold ....   0.100
   Minimum threshold for Micro iter.    ....   0.010
   NR start threshold (gradient norm)   ....   0.001
   Initial trust radius                 ....   0.400
   Minimum AH scaling param. (alpha)    ....   1.000
   Maximum AH scaling param. (alpha)    .... 1000.000
   Orbital update algorithm             .... Taylor
   White noise on init. David. guess    .... on
   Maximum white noise                  ....   0.010
   Quad. conv. algorithm                .... NR
 SOSCF                  CNVSOSCF        .... off
 Level Shifting         CNVShift        .... on
   Level shift para.    LevelShift      ....    0.2500
   Turn off err/grad.   ShiftErr        ....    0.0010
 Zerner damping         CNVZerner       .... off
 Static damping         CNVDamp         .... on
   Fraction old density DampFac         ....    0.7000
   Max. Damping (<1)    DampMax         ....    0.9800
   Min. Damping (>=0)   DampMin         ....    0.0000
   Turn off err/grad.   DampErr         ....    0.1000
 Fernandez-Rico         CNVRico         .... off

SCF Procedure:
 Maximum # iterations   MaxIter         ....   125
 SCF integral mode      SCFMode         .... Direct
   Integral package                     .... SHARK and LIBINT hybrid scheme
 Reset frequency        DirectResetFreq ....    20
 Integral Threshold     Thresh          ....  2.500e-11 Eh
 Primitive CutOff       TCut            ....  2.500e-12 Eh

Convergence Tolerance:
 Convergence Check Mode ConvCheckMode   .... Total+1el-Energy
 Convergence forced     ConvForced      .... 0
 Energy Change          TolE            ....  1.000e-08 Eh
 1-El. energy change                    ....  1.000e-05 Eh
 DIIS Error             TolErr          ....  5.000e-07


Diagonalization of the overlap matrix:
Smallest eigenvalue                        ... 5.373e-05
Time for diagonalization                   ...    0.002 sec
Threshold for overlap eigenvalues          ... 1.000e-08
Number of eigenvalues below threshold      ... 0
Time for construction of square roots      ...    0.090 sec
Total time needed                          ...    0.093 sec

Time for model grid setup =    0.101 sec

------------------------------
INITIAL GUESS: MODEL POTENTIAL
------------------------------
Loading Hartree-Fock densities                     ... done
Calculating cut-offs                               ... done
Initializing the effective Hamiltonian             ... done
Setting up the integral package (SHARK)            ... done
Starting the Coulomb interaction                   ... done (   0.2 sec)
Reading the grid                                   ... done
Mapping shells                                     ... done
Starting the XC term evaluation                    ... done (   0.0 sec)
  promolecular density results
     # of electrons  =      8.998057338
     EX              =     -5.933909755
     EC              =     -0.259425116
     EX+EC           =     -6.193334871
Transforming the Hamiltonian                       ... done (   0.0 sec)
Diagonalizing the Hamiltonian                      ... done (   0.0 sec)
Back transforming the eigenvectors                 ... done (   0.0 sec)
Now organizing SCF variables                       ... done
                      ------------------
                      INITIAL GUESS DONE (   0.4 sec)
                      ------------------
-------------------
DFT GRID GENERATION
-------------------

General Integration Accuracy     IntAcc      ... 4.388
Radial Grid Type                 RadialGrid  ... OptM3 with GC (2021)
Angular Grid (max. ang.)         AngularGrid ... 4 (Lebedev-302)
Angular grid pruning method      GridPruning ... 4 (adaptive)
Weight generation scheme         WeightScheme... Becke
Basis function cutoff            BFCut       ... 1.0000e-11
Integration weight cutoff        WCut        ... 1.0000e-14
Angular grids for H and He will be reduced by one unit
Partially contracted basis set               ... off
Rotationally invariant grid construction     ... off

Total number of grid points                  ...    17038
Total number of batches                      ...      268
Average number of points per batch           ...       63
Average number of grid points per atom       ...     4260
Time for grid setup =    0.171 sec

--------------------
COSX GRID GENERATION
--------------------

GRIDX 1
-------
General Integration Accuracy     IntAcc      ... 3.816
Radial Grid Type                 RadialGrid  ... OptM3 with GC (2021)
Angular Grid (max. ang.)         AngularGrid ... 1 (Lebedev-50)
Angular grid pruning method      GridPruning ... 4 (adaptive)
Weight generation scheme         WeightScheme... Becke
Basis function cutoff            BFCut       ... 1.0000e-11
Integration weight cutoff        WCut        ... 1.0000e-14
Angular grids for H and He will be reduced by one unit
Partially contracted basis set               ... on
Rotationally invariant grid construction     ... off

Total number of grid points                  ...     2151
Total number of batches                      ...       36
Average number of points per batch           ...       59
Average number of grid points per atom       ...      538
UseSFitting                                  ... on

GRIDX 2
-------
General Integration Accuracy     IntAcc      ... 4.020
Radial Grid Type                 RadialGrid  ... OptM3 with GC (2021)
Angular Grid (max. ang.)         AngularGrid ... 2 (Lebedev-110)
Angular grid pruning method      GridPruning ... 4 (adaptive)
Weight generation scheme         WeightScheme... Becke
Basis function cutoff            BFCut       ... 1.0000e-11
Integration weight cutoff        WCut        ... 1.0000e-14
Angular grids for H and He will be reduced by one unit
Partially contracted basis set               ... on
Rotationally invariant grid construction     ... off

Total number of grid points                  ...     5054
Total number of batches                      ...       81
Average number of points per batch           ...       62
Average number of grid points per atom       ...     1264
UseSFitting                                  ... on

GRIDX 3
-------
General Integration Accuracy     IntAcc      ... 4.338
Radial Grid Type                 RadialGrid  ... OptM3 with GC (2021)
Angular Grid (max. ang.)         AngularGrid ... 3 (Lebedev-194)
Angular grid pruning method      GridPruning ... 4 (adaptive)
Weight generation scheme         WeightScheme... Becke
Basis function cutoff            BFCut       ... 1.0000e-11
Integration weight cutoff        WCut        ... 1.0000e-14
Angular grids for H and He will be reduced by one unit
Partially contracted basis set               ... on
Rotationally invariant grid construction     ... off

Total number of grid points                  ...    11742
Total number of batches                      ...      186
Average number of points per batch           ...       63
Average number of grid points per atom       ...     2936
UseSFitting                                  ... on

Time for X-Grid setup             =    0.722 sec

--------------
SCF ITERATIONS
--------------
ITER       Energy         Delta-E        Max-DP      RMS-DP      [F,P]     Damp
               ***  Starting incremental Fock matrix formation  ***
  0    -39.7934644698   0.000000000000 0.03500959  0.00088307  0.0778562 0.7000
  1    -39.8072118584  -0.013747388595 0.03487631  0.00078408  0.0497701 0.7000
                               ***Turning on DIIS***
  2    -39.8149287725  -0.007716914135 0.07913470  0.00178296  0.0285619 0.0000
  3    -39.8281305263  -0.013201753737 0.02207240  0.00051572  0.0195560 0.0000
  4    -39.8297192919  -0.001588765658 0.00901416  0.00016857  0.0035179 0.0000
  5    -39.8297867234  -0.000067431449 0.00734981  0.00013280  0.0015858 0.0000
  6    -39.8298069820  -0.000020258631 0.00713720  0.00012641  0.0006324 0.0000
               *** Restarting incremental Fock matrix formation ***
                                   *** Resetting DIIS ***
  7    -39.8298199956  -0.000013013605 0.00105019  0.00001798  0.0000812 0.0000
  8    -39.8298201235  -0.000000127921 0.00048686  0.00000862  0.0000380 0.0000
  9    -39.8298201576  -0.000000034052 0.00001613  0.00000076  0.0000143 0.0000
 10    -39.8298201595  -0.000000001951 0.00000848  0.00000022  0.0000053 0.0000
                 **** Energy Check signals convergence ****

               *****************************************************
               *                     SUCCESS                       *
               *           SCF CONVERGED AFTER  11 CYCLES          *
               *****************************************************

Old exchange energy                            =     -2.173838003 Eh
New exchange energy                            =     -2.173843704 Eh
Exchange energy change after final integration =     -0.000005701 Eh
Total energy after final integration           =    -39.829825861 Eh
Final COS-X integration done in                =     0.125 sec

----------------
TOTAL SCF ENERGY
----------------

Total Energy       :          -39.82982586 Eh           -1083.82466 eV

Components:
Nuclear Repulsion  :            9.71412642 Eh             264.33482 eV
Electronic Energy  :          -49.54395228 Eh           -1348.15948 eV
One Electron Energy:          -71.71421208 Eh           -1951.44292 eV
Two Electron Energy:           22.17025981 Eh             603.28344 eV
Max COSX asymmetry :            0.00000008 Eh               0.00000 eV

Virial components:
Potential Energy   :          -79.48047089 Eh           -2162.77357 eV
Kinetic Energy     :           39.65064503 Eh            1078.94890 eV
Virial Ratio       :            2.00451899


DFT components:
N(Alpha)           :        4.999999944315 electrons
N(Beta)            :        4.000000769344 electrons
N(Total)           :        9.000000713659 electrons
E(XC)              :       -4.315250116597 Eh       
DFET-embed. en.    :        0.000000000000 Eh       

---------------
SCF CONVERGENCE
---------------

  Last Energy change         ...   -4.4448e-10  Tolerance :   1.0000e-08
  Last MAX-Density change    ...    0.0000e+00  Tolerance :   1.0000e-07
  Last RMS-Density change    ...    0.0000e+00  Tolerance :   5.0000e-09
  Last DIIS Error            ...    1.2828e-06  Tolerance :   5.0000e-07

             **** THE GBW FILE WAS UPDATED (/beegfs/scratch/ispackman/PFAS_EPR_calcs/benchmark/JChemEd_CF3_radical/CH3_radical_110.5_degrees_IN-PROGRESS/CH3_radical_110.5_degrees.gbw) ****
             **** DENSITY /beegfs/scratch/ispackman/PFAS_EPR_calcs/benchmark/JChemEd_CF3_radical/CH3_radical_110.5_degrees_IN-PROGRESS/CH3_radical_110.5_degrees.scfp WAS UPDATED ****
             **** ENERGY FILE WAS UPDATED (/beegfs/scratch/ispackman/PFAS_EPR_calcs/benchmark/JChemEd_CF3_radical/CH3_radical_110.5_degrees_IN-PROGRESS/CH3_radical_110.5_degrees.en.tmp) ****
----------------------
UHF SPIN CONTAMINATION
----------------------

Warning: in a DFT calculation there is little theoretical justification to 
         calculate <S**2> as in Hartree-Fock theory. We will do it anyways
         but you should keep in mind that the values have only limited relevance

Expectation value of <S**2>     :     0.753027
Ideal value S*(S+1) for S=0.5   :     0.750000
Deviation                       :     0.003027

             **** THE GBW FILE WAS UPDATED (/beegfs/scratch/ispackman/PFAS_EPR_calcs/benchmark/JChemEd_CF3_radical/CH3_radical_110.5_degrees_IN-PROGRESS/CH3_radical_110.5_degrees.gbw) ****
             **** DENSITY /beegfs/scratch/ispackman/PFAS_EPR_calcs/benchmark/JChemEd_CF3_radical/CH3_radical_110.5_degrees_IN-PROGRESS/CH3_radical_110.5_degrees.scfp WAS UPDATED ****
----------------
ORBITAL ENERGIES
----------------
                 SPIN UP ORBITALS
  NO   OCC          E(Eh)            E(eV) 
   0   1.0000     -10.289922      -280.0030 
   1   1.0000      -0.809704       -22.0332 
   2   1.0000      -0.509684       -13.8692 
   3   1.0000      -0.509660       -13.8686 
   4   1.0000      -0.355904        -9.6846 
   5   0.0000       0.076197         2.0734 
   6   0.0000       0.161500         4.3946 
   7   0.0000       0.161510         4.3949 
   8   0.0000       0.197212         5.3664 
   9   0.0000       0.197219         5.3666 
  10   0.0000       0.197729         5.3805 
  11   0.0000       0.223012         6.0685 
  12   0.0000       0.254288         6.9195 
  13   0.0000       0.254294         6.9197 
  14   0.0000       0.311737         8.4828 
  15   0.0000       0.360126         9.7995 
  16   0.0000       0.360134         9.7998 
  17   0.0000       0.368435        10.0256 
  18   0.0000       0.373535        10.1644 
  19   0.0000       0.386082        10.5058 
  20   0.0000       0.386085        10.5059 
  21   0.0000       0.418206        11.3800 
  22   0.0000       0.418215        11.3802 
  23   0.0000       0.521615        14.1939 
  24   0.0000       0.550294        14.9742 
  25   0.0000       0.550296        14.9743 
  26   0.0000       0.557309        15.1652 
  27   0.0000       0.781278        21.2597 
  28   0.0000       0.797048        21.6888 
  29   0.0000       0.797049        21.6888 
  30   0.0000       0.879192        23.9240 
  31   0.0000       0.879200        23.9243 
  32   0.0000       1.012499        27.5515 
  33   0.0000       1.128551        30.7094 
  34   0.0000       1.128607        30.7110 
  35   0.0000       1.616399        43.9845 
  36   0.0000       1.704721        46.3878 
  37   0.0000       1.750513        47.6339 
  38   0.0000       1.774905        48.2976 
  39   0.0000       1.774930        48.2983 
  40   0.0000       1.923747        52.3478 
  41   0.0000       1.923799        52.3492 
  42   0.0000       2.144854        58.3644 
  43   0.0000       2.260105        61.5006 
  44   0.0000       2.344003        63.7836 
  45   0.0000       2.344094        63.7860 
  46   0.0000       2.525322        68.7175 
  47   0.0000       2.525392        68.7194 
  48   0.0000       2.720120        74.0182 
  49   0.0000       2.720148        74.0190 
  50   0.0000       2.853185        77.6391 
  51   0.0000       3.027173        82.3736 
  52   0.0000       3.162213        86.0482 
  53   0.0000       3.162279        86.0500 
  54   0.0000       3.288206        89.4766 
  55   0.0000       3.288208        89.4767 
  56   0.0000       3.492541        95.0369 
  57   0.0000       3.526749        95.9677 
  58   0.0000       3.617224        98.4297 
  59   0.0000       3.617236        98.4300 
  60   0.0000       4.391770       119.5061 
  61   0.0000       4.391826       119.5077 
  62   0.0000       4.597569       125.1062 
  63   0.0000      22.195936       603.9821 

                 SPIN DOWN ORBITALS
  NO   OCC          E(Eh)            E(eV) 
   0   1.0000     -10.279152      -279.7100 
   1   1.0000      -0.769395       -20.9363 
   2   1.0000      -0.495676       -13.4880 
   3   1.0000      -0.495603       -13.4860 
   4   0.0000      -0.009893        -0.2692 
   5   0.0000       0.085633         2.3302 
   6   0.0000       0.166123         4.5204 
   7   0.0000       0.166136         4.5208 
   8   0.0000       0.200434         5.4541 
   9   0.0000       0.200441         5.4543 
  10   0.0000       0.234055         6.3690 
  11   0.0000       0.240583         6.5466 
  12   0.0000       0.259454         7.0601 
  13   0.0000       0.259459         7.0602 
  14   0.0000       0.322994         8.7891 
  15   0.0000       0.371135        10.0991 
  16   0.0000       0.371153        10.0996 
  17   0.0000       0.373572        10.1654 
  18   0.0000       0.375879        10.2282 
  19   0.0000       0.393250        10.7009 
  20   0.0000       0.393251        10.7009 
  21   0.0000       0.427622        11.6362 
  22   0.0000       0.427623        11.6362 
  23   0.0000       0.549152        14.9432 
  24   0.0000       0.552463        15.0333 
  25   0.0000       0.552466        15.0334 
  26   0.0000       0.572278        15.5725 
  27   0.0000       0.790826        21.5195 
  28   0.0000       0.807061        21.9612 
  29   0.0000       0.807067        21.9614 
  30   0.0000       0.904912        24.6239 
  31   0.0000       0.904912        24.6239 
  32   0.0000       1.034619        28.1534 
  33   0.0000       1.136120        30.9154 
  34   0.0000       1.136191        30.9173 
  35   0.0000       1.679993        45.7149 
  36   0.0000       1.705388        46.4060 
  37   0.0000       1.767864        48.1060 
  38   0.0000       1.784087        48.5475 
  39   0.0000       1.784138        48.5489 
  40   0.0000       1.939816        52.7851 
  41   0.0000       1.939836        52.7856 
  42   0.0000       2.156863        58.6912 
  43   0.0000       2.266918        61.6860 
  44   0.0000       2.355521        64.0970 
  45   0.0000       2.355668        64.1010 
  46   0.0000       2.531623        68.8890 
  47   0.0000       2.531741        68.8922 
  48   0.0000       2.738311        74.5132 
  49   0.0000       2.738347        74.5142 
  50   0.0000       2.887874        78.5830 
  51   0.0000       3.069087        83.5141 
  52   0.0000       3.213799        87.4519 
  53   0.0000       3.213843        87.4531 
  54   0.0000       3.323916        90.4484 
  55   0.0000       3.324010        90.4509 
  56   0.0000       3.509724        95.5044 
  57   0.0000       3.564632        96.9986 
  58   0.0000       3.658258        99.5463 
  59   0.0000       3.658321        99.5480 
  60   0.0000       4.413265       120.0911 
  61   0.0000       4.413385       120.0943 
  62   0.0000       4.622999       125.7982 
  63   0.0000      22.216237       604.5346 

                    ********************************
                    * MULLIKEN POPULATION ANALYSIS *
                    ********************************

--------------------------------------------
MULLIKEN ATOMIC CHARGES AND SPIN POPULATIONS
--------------------------------------------
   0 C :   -0.709598    0.885832
   1 H :    0.236290    0.038015
   2 H :    0.236654    0.038077
   3 H :    0.236654    0.038076
Sum of atomic charges         :   -0.0000000
Sum of atomic spin populations:    1.0000000

-----------------------------------------------------
MULLIKEN REDUCED ORBITAL CHARGES AND SPIN POPULATIONS
-----------------------------------------------------
CHARGE
  0 C s       :     3.387321  s :     3.387321
      pz      :     0.931422  p :     3.281972
      px      :     1.175137
      py      :     1.175413
      dz2     :     0.002091  d :     0.039074
      dxz     :     0.009415
      dyz     :     0.009429
      dx2y2   :     0.009057
      dxy     :     0.009081
      f0      :     0.000415  f :     0.001232
      f+1     :     0.000153
      f-1     :     0.000152
      f+2     :    -0.000102
      f-2     :    -0.000102
      f+3     :     0.000717
      f-3     :     0.000000
  1 H s       :     0.716453  s :     0.716453
      pz      :     0.022924  p :     0.047257
      px      :     0.021623
      py      :     0.002710
  2 H s       :     0.716186  s :     0.716186
      pz      :     0.022848  p :     0.047160
      px      :     0.007424
      py      :     0.016887
  3 H s       :     0.716187  s :     0.716187
      pz      :     0.022848  p :     0.047159
      px      :     0.007424
      py      :     0.016887

SPIN
  0 C s       :    -0.006486  s :    -0.006486
      pz      :     0.883642  p :     0.899913
      px      :     0.008162
      py      :     0.008110
      dz2     :    -0.002217  d :    -0.006562
      dxz     :    -0.002288
      dyz     :    -0.002288
      dx2y2   :     0.000121
      dxy     :     0.000110
      f0      :    -0.000309  f :    -0.001034
      f+1     :    -0.000276
      f-1     :    -0.000276
      f+2     :    -0.000015
      f-2     :    -0.000015
      f+3     :    -0.000143
      f-3     :    -0.000000
  1 H s       :     0.011923  s :     0.011923
      pz      :     0.021078  p :     0.026091
      px      :     0.001850
      py      :     0.003163
  2 H s       :     0.012056  s :     0.012056
      pz      :     0.021008  p :     0.026021
      px      :     0.002841
      py      :     0.002172
  3 H s       :     0.012056  s :     0.012056
      pz      :     0.021008  p :     0.026021
      px      :     0.002841
      py      :     0.002172


                     *******************************
                     * LOEWDIN POPULATION ANALYSIS *
                     *******************************

-------------------------------------------
LOEWDIN ATOMIC CHARGES AND SPIN POPULATIONS
-------------------------------------------
   0 C :    0.059066    0.833563
   1 H :   -0.019704    0.055492
   2 H :   -0.019681    0.055472
   3 H :   -0.019681    0.055472

----------------------------------------------------
LOEWDIN REDUCED ORBITAL CHARGES AND SPIN POPULATIONS
----------------------------------------------------
CHARGE
  0 C s       :     2.912884  s :     2.912884
      pz      :     0.778501  p :     2.902198
      px      :     1.061871
      py      :     1.061826
      dz2     :     0.008699  d :     0.115942
      dxz     :     0.015601
      dyz     :     0.015601
      dx2y2   :     0.038013
      dxy     :     0.038029
      f0      :     0.001044  f :     0.009909
      f+1     :     0.000508
      f-1     :     0.000507
      f+2     :     0.002329
      f-2     :     0.002330
      f+3     :     0.003192
      f-3     :     0.000000
  1 H s       :     0.759307  s :     0.759307
      pz      :     0.068016  p :     0.260397
      px      :     0.123291
      py      :     0.069090
  2 H s       :     0.759305  s :     0.759305
      pz      :     0.068003  p :     0.260377
      px      :     0.082626
      py      :     0.109748
  3 H s       :     0.759305  s :     0.759305
      pz      :     0.068003  p :     0.260377
      px      :     0.082626
      py      :     0.109748

SPIN
  0 C s       :     0.067321  s :     0.067321
      pz      :     0.741506  p :     0.774760
      px      :     0.016609
      py      :     0.016645
      dz2     :    -0.000180  d :    -0.007765
      dxz     :    -0.001915
      dyz     :    -0.001912
      dx2y2   :    -0.001872
      dxy     :    -0.001886
      f0      :    -0.000219  f :    -0.000752
      f+1     :    -0.000229
      f-1     :    -0.000230
      f+2     :    -0.000116
      f-2     :    -0.000117
      f+3     :     0.000159
      f-3     :    -0.000000
  1 H s       :    -0.006897  s :    -0.006897
      pz      :     0.059827  p :     0.062389
      px      :     0.003190
      py      :    -0.000628
  2 H s       :    -0.006900  s :    -0.006900
      pz      :     0.059810  p :     0.062372
      px      :     0.000332
      py      :     0.002229
  3 H s       :    -0.006900  s :    -0.006900
      pz      :     0.059810  p :     0.062372
      px      :     0.000332
      py      :     0.002229


                      *****************************
                      * MAYER POPULATION ANALYSIS *
                      *****************************

  NA   - Mulliken gross atomic population
  ZA   - Total nuclear charge
  QA   - Mulliken gross atomic charge
  VA   - Mayer's total valence
  BVA  - Mayer's bonded valence
  FA   - Mayer's free valence

  ATOM       NA         ZA         QA         VA         BVA        FA
  0 C      6.7096     6.0000    -0.7096     3.7739     2.9555     0.8184
  1 H      0.7637     1.0000     0.2363     1.0089     1.0075     0.0014
  2 H      0.7633     1.0000     0.2367     1.0084     1.0071     0.0014
  3 H      0.7633     1.0000     0.2367     1.0084     1.0071     0.0014

  Mayer bond orders larger than 0.100000
B(  0-C ,  1-H ) :   0.9855 B(  0-C ,  2-H ) :   0.9850 B(  0-C ,  3-H ) :   0.9850 


-------
TIMINGS
-------

Total SCF time: 0 days 0 hours 0 min 18 sec 

Total time                  ....      18.808 sec
Sum of individual times     ....      16.540 sec  ( 87.9%)

Fock matrix formation       ....      13.165 sec  ( 70.0%)
  Split-RI-J                ....       1.402 sec  ( 10.7% of F)
  Chain of spheres X        ....       1.551 sec  ( 11.8% of F)
  XC integration            ....       2.551 sec  ( 19.4% of F)
    Basis function eval.    ....       0.052 sec  (  2.0% of XC)
    Density eval.           ....       0.063 sec  (  2.5% of XC)
    XC-Functional eval.     ....       0.069 sec  (  2.7% of XC)
    XC-Potential eval.      ....       0.070 sec  (  2.8% of XC)
Diagonalization             ....       0.264 sec  (  1.4%)
Density matrix formation    ....       0.017 sec  (  0.1%)
Population analysis         ....       0.435 sec  (  2.3%)
Initial guess               ....       0.293 sec  (  1.6%)
Orbital Transformation      ....       0.000 sec  (  0.0%)
Orbital Orthonormalization  ....       0.000 sec  (  0.0%)
DIIS solution               ....       1.371 sec  (  7.3%)
Grid generation             ....       0.994 sec  (  5.3%)

Maximum memory used throughout the entire SCF-calculation: 58.5 MB


-------------------------------------------------------------------------------
                          DFT DISPERSION CORRECTION                            
                                                                               
                              DFTD3 V3.1  Rev 1                                
                              USING zero damping                               
-------------------------------------------------------------------------------
The omegaB97X-D3 functional is recognized. Fit by Chai et al.
Active option DFTDOPT                   ...         3   

molecular C6(AA) [au] = 106.961089 


            DFT-D V3
 parameters
 s6 scaling factor         :     1.0000 
 rs6 scaling factor        :     1.2810 
 s8 scaling factor         :     1.0000 
 rs8 scaling factor        :     1.0940 
 Damping factor alpha6     :    14.0000 
 Damping factor alpha8     :    16.0000 
 ad hoc parameters k1-k3   :    16.0000     1.3333    -4.0000 

 Edisp/kcal,au: -0.007638761931  -0.000012173141 
 E6   /kcal   :  -0.001190514 
 E8   /kcal   :  -0.006448248 
 % E8         :  84.414831854 

-------------------------   ----------------
Dispersion correction           -0.000012173
-------------------------   ----------------


-------------------------   --------------------
FINAL SINGLE POINT ENERGY       -39.829838034466
-------------------------   --------------------



           ************************************************************
           *        Program running with 18 parallel MPI-processes    *
           *              working on a common directory               *
           ************************************************************
------------------------------------------------------------------------------
                         ORCA SCF GRADIENT CALCULATION
------------------------------------------------------------------------------

 ... reading COSX grid (gridx3)
Gradient of the Kohn-Sham DFT energy:
Kohn-Sham wavefunction type      ... UKS
Hartree-Fock exchange scaling    ...    0.196
Number of operators              ...    2
Number of atoms                  ...    4
Basis set dimensions             ...   64
Integral neglect threshold       ... 2.5e-11
Integral primitive cutoff        ... 2.5e-12
SHARK Integral package           ... ON

Nuc. rep. gradient       (SHARK) ... done (  0.0 sec)
HCore & Overlap gradient (SHARK) ... done (  0.0 sec)
RI-J gradient            (SHARK) ... done (  0.1 sec)
COSX-gradient                    ... done (  0.1 sec)
Exchange-correlation gradient    ... done
Dispersion correction            ... done

------------------
CARTESIAN GRADIENT
------------------

WARNING: THERE ARE 3 CONSTRAINED CARTESIAN COORDINATES
   1   C   :    0.000052266   -0.000000110    0.033499304
   2   H   :   -0.009790527   -0.000000004   -0.011168409
   3   H   :    0.004876756   -0.008508435   -0.011176966
   4   H   :    0.004876761    0.008508438   -0.011176993

Difference to translation invariance:
           :    0.0000152554   -0.0000001103   -0.0000230649

Difference to rotation invariance:
           :    0.0000000454    0.0000072751   -0.0000000021

Norm of the cartesian gradient     ...    0.0422492147
RMS gradient                       ...    0.0121962977
MAX gradient                       ...    0.0334993037

-------
TIMINGS
-------

Total SCF gradient time            ...        0.822 sec

One electron gradient       ....       0.006 sec  (  0.8%)
RI-J Coulomb gradient       ....       0.147 sec  ( 17.8%)
COSX gradient               ....       0.130 sec  ( 15.8%)
XC gradient                 ....       0.109 sec  ( 13.2%)

Maximum memory used throughout the entire SCFGRAD-calculation: 33.6 MB
------------------------------------------------------------------------------
                         ORCA GEOMETRY RELAXATION STEP
------------------------------------------------------------------------------

Reading the OPT-File                    .... done
Getting information on internals        .... done
Copying old internal coords+grads       .... done
Making the new internal coordinates     .... (new redundants).... done
Validating the new internal coordinates .... (new redundants).... done
Calculating the B-matrix                .... done
Calculating the G,G- and P matrices     .... done
Transforming gradient to internals      .... done
Projecting the internal gradient        .... done
Number of atoms                         ....   4
Number of internal coordinates          ....   7
Current Energy                          ....   -39.829838034 Eh
Current gradient norm                   ....     0.042249215 Eh/bohr
Maximum allowed component of the step   ....  0.300
Current trust radius                    ....  0.300
Evaluating the initial hessian          ....  (Almloef) done
Projecting the Hessian                  .... done
Forming the augmented Hessian           .... done
Diagonalizing the augmented Hessian     .... done
Last element of RFO vector              ....  0.999642879
Lowest eigenvalues of augmented Hessian:
 -0.000267157  0.373574723  0.373574723  0.373841880 1000.000000000
Length of the computed step             ....  0.026732484
The final length of the internal step   ....  0.026732484
Converting the step to cartesian space:
 Initial RMS(Int)=    0.0101039291
Transforming coordinates:
 Iter   0:  RMS(Cart)=    0.0074223919 RMS(Int)=    0.0101039291
 Iter   1:  RMS(Cart)=    0.0000000000 RMS(Int)=    0.0000000000
Imposing constraints:
 Iter   0:  RMS(Cart)=    0.0000000008 RMS(Int)=    0.0000000024
CONVERGED
done
Storing new coordinates                 .... done

                                .--------------------.
          ----------------------|Geometry convergence|-------------------------
          Item                value                   Tolerance       Converged
          ---------------------------------------------------------------------
          RMS gradient        0.0037772719            0.0001000000      NO
          MAX gradient        0.0057718051            0.0003000000      NO
          RMS step            0.0101039291            0.0020000000      NO
          MAX step            0.0154391612            0.0040000000      NO
          ........................................................
          Max(Bonds)      0.0082      Max(Angles)    0.00
          Max(Dihed)        0.00      Max(Improp)    0.00
          ---------------------------------------------------------------------

The optimization has not yet converged - more geometry cycles are needed


    ---------------------------------------------------------------------------
                         Redundant Internal Coordinates
                            (Angstroem and degrees)

        Definition                    Value    dE/dq     Step     New-Value
    ----------------------------------------------------------------------------
     1. B(H   1,C   0)                1.0800 -0.005766  0.0082    1.0882   
     2. B(H   2,C   0)                1.0800 -0.005772  0.0082    1.0882   
     3. B(H   3,C   0)                1.0800 -0.005772  0.0082    1.0882   
     4. A(H   2,C   0,H   3)          110.50 -0.016763    0.00    110.50 C 
     5. A(H   1,C   0,H   2)          110.50 -0.006084    0.00    110.50 C 
     6. A(H   1,C   0,H   3)          110.50 -0.006084   -0.00    110.50 C 
     7. I(H   1,H   3,H   2,C   0)     52.09  0.022080    0.00     52.09   
    ----------------------------------------------------------------------------

         *************************************************************
         *                GEOMETRY OPTIMIZATION CYCLE   2            *
         *************************************************************
---------------------------------
CARTESIAN COORDINATES (ANGSTROEM)
---------------------------------
  C      0.000002    0.000000    0.001936
  H      1.032402    0.000000   -0.341935
  H     -0.516202    0.894092   -0.341935
  H     -0.516202   -0.894092   -0.341935

----------------------------
CARTESIAN COORDINATES (A.U.)
----------------------------
  NO LB      ZA    FRAG     MASS         X           Y           Z
   0 C     6.0000    0    12.011    0.000004    0.000000    0.003658
   1 H     1.0000    0     1.008    1.950957    0.000000   -0.646163
   2 H     1.0000    0     1.008   -0.975481    1.689588   -0.646164
   3 H     1.0000    0     1.008   -0.975481   -1.689588   -0.646164

--------------------------------
INTERNAL COORDINATES (ANGSTROEM)
--------------------------------
 C      0   0   0     0.000000000000     0.00000000     0.00000000
 H      1   0   0     1.088161944472     0.00000000     0.00000000
 H      1   2   0     1.088169974335   110.49999996     0.00000000
 H      1   2   3     1.088170052273   110.49999996   122.61236182

---------------------------
INTERNAL COORDINATES (A.U.)
---------------------------
 C      0   0   0     0.000000000000     0.00000000     0.00000000
 H      1   0   0     2.056328064408     0.00000000     0.00000000
 H      1   2   0     2.056343238649   110.49999996     0.00000000
 H      1   2   3     2.056343385931   110.49999996   122.61236182



           ************************************************************
           *        Program running with 18 parallel MPI-processes    *
           *              working on a common directory               *
           ************************************************************
------------------------------------------------------------------------------
                   ___                                                        
                  /   \      - P O W E R E D   B Y -                         
                 /     \                                                     
                 |  |  |   _    _      __       _____    __    __             
                 |  |  |  | |  | |    /  \     |  _  \  |  |  /  |          
                  \  \/   | |  | |   /    \    | | | |  |  | /  /          
                 / \  \   | |__| |  /  /\  \   | |_| |  |  |/  /          
                |  |  |   |  __  | /  /__\  \  |    /   |      \           
                |  |  |   | |  | | |   __   |  |    \   |  |\   \          
                \     /   | |  | | |  |  |  |  | |\  \  |  | \   \       
                 \___/    |_|  |_| |__|  |__|  |_| \__\ |__|  \__/        
                                                                              
                      - O R C A' S   B I G   F R I E N D -                    
                                      &                                       
                       - I N T E G R A L  F E E D E R -                       
                                                                              
 v1 FN, 2020, v2 2021                                                         
------------------------------------------------------------------------------


Reading SHARK input file /beegfs/scratch/ispackman/PFAS_EPR_calcs/benchmark/JChemEd_CF3_radical/CH3_radical_110.5_degrees_IN-PROGRESS/CH3_radical_110.5_degrees.SHARKINP.tmp ... ok
----------------------
SHARK INTEGRAL PACKAGE
----------------------

Number of atoms                             ...      4
Number of basis functions                   ...     64
Number of shells                            ...     28
Maximum angular momentum                    ...      3
Integral batch strategy                     ... SHARK/LIBINT Hybrid
RI-J (if used) integral strategy            ... SPLIT-RIJ (Revised 2003 algorithm where possible)
Printlevel                                  ...      1
Contraction scheme used                     ... SEGMENTED contraction
Coulomb Range Separation                    ... NOT USED
Exchange Range Separation                   ... Long Range
   Mu parameter                             ...  0.250000
   Scaling (regular/separated)              ...  0.195728  0.804272
Finite Nucleus Model                        ... NOT USED
Auxiliary Coulomb fitting basis             ... AVAILABLE
   # of basis functions in Aux-J            ...     82
   # of shells in Aux-J                     ...     30
   Maximum angular momentum in Aux-J        ...      4
Auxiliary J/K fitting basis                 ... NOT available
Auxiliary Correlation fitting basis         ... NOT available
Auxiliary 'external' fitting basis          ... NOT available
Integral threshold                          ...     2.500000e-11
Primitive cut-off                           ...     2.500000e-12
Primitive pair pre-selection threshold      ...     2.500000e-12

Calculating pre-screening integrals         ... done (  0.1 sec) Dimension = 28
Organizing shell pair data                  ... done (  0.0 sec)
Shell pair information
Total number of shell pairs                 ...       406
Shell pairs after pre-screening             ...       406
Total number of primitive shell pairs       ...       977
Primitive shell pairs kept                  ...       944
          la=0 lb=0:    120 shell pairs
          la=1 lb=0:    135 shell pairs
          la=1 lb=1:     45 shell pairs
          la=2 lb=0:     45 shell pairs
          la=2 lb=1:     27 shell pairs
          la=2 lb=2:      6 shell pairs
          la=3 lb=0:     15 shell pairs
          la=3 lb=1:      9 shell pairs
          la=3 lb=2:      3 shell pairs
          la=3 lb=3:      1 shell pairs

Calculating one electron integrals          ... done (  0.0 sec)
Calculating RI/J V-Matrix + Cholesky decomp.... done (  0.2 sec)
Calculating Nuclear repulsion               ... done (  0.0 sec) ENN=      9.641216293173 Eh

SHARK setup successfully completed in   0.6 seconds

Maximum memory used throughout the entire GTOINT-calculation: 14.0 MB


           ************************************************************
           *        Program running with 18 parallel MPI-processes    *
           *              working on a common directory               *
           ************************************************************

Diagonalization of the overlap matrix:
Smallest eigenvalue                        ... 5.661e-05
Time for diagonalization                   ...    0.002 sec
Threshold for overlap eigenvalues          ... 1.000e-08
Number of eigenvalues below threshold      ... 0
Time for construction of square roots      ...    0.072 sec
Total time needed                          ...    0.076 sec

-------------------
DFT GRID GENERATION
-------------------

General Integration Accuracy     IntAcc      ... 4.388
Radial Grid Type                 RadialGrid  ... OptM3 with GC (2021)
Angular Grid (max. ang.)         AngularGrid ... 4 (Lebedev-302)
Angular grid pruning method      GridPruning ... 4 (adaptive)
Weight generation scheme         WeightScheme... Becke
Basis function cutoff            BFCut       ... 1.0000e-11
Integration weight cutoff        WCut        ... 1.0000e-14
Angular grids for H and He will be reduced by one unit
Partially contracted basis set               ... off
Rotationally invariant grid construction     ... off

Total number of grid points                  ...    17044
Total number of batches                      ...      269
Average number of points per batch           ...       63
Average number of grid points per atom       ...     4261
Time for grid setup =    0.162 sec

--------------------
COSX GRID GENERATION
--------------------

GRIDX 1
-------
General Integration Accuracy     IntAcc      ... 3.816
Radial Grid Type                 RadialGrid  ... OptM3 with GC (2021)
Angular Grid (max. ang.)         AngularGrid ... 1 (Lebedev-50)
Angular grid pruning method      GridPruning ... 4 (adaptive)
Weight generation scheme         WeightScheme... Becke
Basis function cutoff            BFCut       ... 1.0000e-11
Integration weight cutoff        WCut        ... 1.0000e-14
Angular grids for H and He will be reduced by one unit
Partially contracted basis set               ... on
Rotationally invariant grid construction     ... off

Total number of grid points                  ...     2151
Total number of batches                      ...       36
Average number of points per batch           ...       59
Average number of grid points per atom       ...      538
UseSFitting                                  ... on

GRIDX 2
-------
General Integration Accuracy     IntAcc      ... 4.020
Radial Grid Type                 RadialGrid  ... OptM3 with GC (2021)
Angular Grid (max. ang.)         AngularGrid ... 2 (Lebedev-110)
Angular grid pruning method      GridPruning ... 4 (adaptive)
Weight generation scheme         WeightScheme... Becke
Basis function cutoff            BFCut       ... 1.0000e-11
Integration weight cutoff        WCut        ... 1.0000e-14
Angular grids for H and He will be reduced by one unit
Partially contracted basis set               ... on
Rotationally invariant grid construction     ... off

Total number of grid points                  ...     5054
Total number of batches                      ...       81
Average number of points per batch           ...       62
Average number of grid points per atom       ...     1264
UseSFitting                                  ... on

GRIDX 3
-------
General Integration Accuracy     IntAcc      ... 4.338
Radial Grid Type                 RadialGrid  ... OptM3 with GC (2021)
Angular Grid (max. ang.)         AngularGrid ... 3 (Lebedev-194)
Angular grid pruning method      GridPruning ... 4 (adaptive)
Weight generation scheme         WeightScheme... Becke
Basis function cutoff            BFCut       ... 1.0000e-11
Integration weight cutoff        WCut        ... 1.0000e-14
Angular grids for H and He will be reduced by one unit
Partially contracted basis set               ... on
Rotationally invariant grid construction     ... off

Total number of grid points                  ...    11742
Total number of batches                      ...      186
Average number of points per batch           ...       63
Average number of grid points per atom       ...     2936
UseSFitting                                  ... on

Time for X-Grid setup             =    0.692 sec

--------------
SCF ITERATIONS
--------------
ITER       Energy         Delta-E        Max-DP      RMS-DP      [F,P]     Damp
               ***  Starting incremental Fock matrix formation  ***
  0    -39.8299156916   0.000000000000 0.00249481  0.00005005  0.0021131 0.7000
  1    -39.8299279252  -0.000012233604 0.00220599  0.00004314  0.0014394 0.7000
                               ***Turning on DIIS***
  2    -39.8299361304  -0.000008205168 0.00583678  0.00011160  0.0009434 0.0000
               *** Restarting incremental Fock matrix formation ***
                                   *** Resetting DIIS ***
  3    -39.8299544391  -0.000018308721 0.00192981  0.00003650  0.0003975 0.0000
  4    -39.8299550515  -0.000000612410 0.00015690  0.00000573  0.0002003 0.0000
  5    -39.8299552643  -0.000000212781 0.00015031  0.00000362  0.0000444 0.0000
  6    -39.8299552834  -0.000000019116 0.00002384  0.00000094  0.0000120 0.0000
                 **** Energy Check signals convergence ****

               *****************************************************
               *                     SUCCESS                       *
               *           SCF CONVERGED AFTER   7 CYCLES          *
               *****************************************************

Old exchange energy                            =     -2.171623440 Eh
New exchange energy                            =     -2.171629310 Eh
Exchange energy change after final integration =     -0.000005870 Eh
Total energy after final integration           =    -39.829961155 Eh
Final COS-X integration done in                =     0.138 sec
Total Energy       :          -39.82996116 Eh           -1083.82834 eV
  Last Energy change         ...   -2.0206e-09  Tolerance :   1.0000e-08
  Last MAX-Density change    ...    0.0000e+00  Tolerance :   1.0000e-07
             **** THE GBW FILE WAS UPDATED (/beegfs/scratch/ispackman/PFAS_EPR_calcs/benchmark/JChemEd_CF3_radical/CH3_radical_110.5_degrees_IN-PROGRESS/CH3_radical_110.5_degrees.gbw) ****
             **** DENSITY /beegfs/scratch/ispackman/PFAS_EPR_calcs/benchmark/JChemEd_CF3_radical/CH3_radical_110.5_degrees_IN-PROGRESS/CH3_radical_110.5_degrees.scfp WAS UPDATED ****
             **** ENERGY FILE WAS UPDATED (/beegfs/scratch/ispackman/PFAS_EPR_calcs/benchmark/JChemEd_CF3_radical/CH3_radical_110.5_degrees_IN-PROGRESS/CH3_radical_110.5_degrees.en.tmp) ****
----------------------
UHF SPIN CONTAMINATION
----------------------

Warning: in a DFT calculation there is little theoretical justification to 
         calculate <S**2> as in Hartree-Fock theory. We will do it anyways
         but you should keep in mind that the values have only limited relevance

Expectation value of <S**2>     :     0.753084
Ideal value S*(S+1) for S=0.5   :     0.750000
Deviation                       :     0.003084

             **** THE GBW FILE WAS UPDATED (/beegfs/scratch/ispackman/PFAS_EPR_calcs/benchmark/JChemEd_CF3_radical/CH3_radical_110.5_degrees_IN-PROGRESS/CH3_radical_110.5_degrees.gbw) ****
             **** DENSITY /beegfs/scratch/ispackman/PFAS_EPR_calcs/benchmark/JChemEd_CF3_radical/CH3_radical_110.5_degrees_IN-PROGRESS/CH3_radical_110.5_degrees.scfp WAS UPDATED ****
Total SCF time: 0 days 0 hours 0 min 12 sec 

Maximum memory used throughout the entire SCF-calculation: 58.5 MB


-------------------------------------------------------------------------------
                          DFT DISPERSION CORRECTION                            
                                                                               
                              DFTD3 V3.1  Rev 1                                
                              USING zero damping                               
-------------------------------------------------------------------------------
-------------------------   ----------------
Dispersion correction           -0.000012929
-------------------------   ----------------


-------------------------   --------------------
FINAL SINGLE POINT ENERGY       -39.829974084727
-------------------------   --------------------



           ************************************************************
           *        Program running with 18 parallel MPI-processes    *
           *              working on a common directory               *
           ************************************************************
------------------------------------------------------------------------------
                         ORCA SCF GRADIENT CALCULATION
------------------------------------------------------------------------------

 ... reading COSX grid (gridx3)
Gradient of the Kohn-Sham DFT energy:
Kohn-Sham wavefunction type      ... UKS
Hartree-Fock exchange scaling    ...    0.196
Number of operators              ...    2
Number of atoms                  ...    4
Basis set dimensions             ...   64
Integral neglect threshold       ... 2.5e-11
Integral primitive cutoff        ... 2.5e-12
SHARK Integral package           ... ON

Nuc. rep. gradient       (SHARK) ... done (  0.0 sec)
HCore & Overlap gradient (SHARK) ... done (  0.0 sec)
RI-J gradient            (SHARK) ... done (  0.2 sec)
COSX-gradient                    ... done (  0.1 sec)
Exchange-correlation gradient    ... done
Dispersion correction            ... done

------------------
CARTESIAN GRADIENT
------------------

WARNING: THERE ARE 3 CONSTRAINED CARTESIAN COORDINATES
   1   C   :    0.000058238    0.000000083    0.037843493
   2   H   :   -0.004352482    0.000000018   -0.012617752
   3   H   :    0.002154425   -0.003792251   -0.012625947
   4   H   :    0.002154394    0.003792221   -0.012625970

Difference to translation invariance:
           :    0.0000145758    0.0000000722   -0.0000261759

Difference to rotation invariance:
           :    0.0000000339    0.0000121985    0.0000000129

Norm of the cartesian gradient     ...    0.0443526762
RMS gradient                       ...    0.0128035148
MAX gradient                       ...    0.0378434935

-------
TIMINGS
-------

Total SCF gradient time            ...        0.812 sec

One electron gradient       ....       0.006 sec  (  0.8%)
RI-J Coulomb gradient       ....       0.186 sec  ( 22.9%)
COSX gradient               ....       0.123 sec  ( 15.2%)
XC gradient                 ....       0.069 sec  (  8.5%)

Maximum memory used throughout the entire SCFGRAD-calculation: 33.6 MB
------------------------------------------------------------------------------
                         ORCA GEOMETRY RELAXATION STEP
------------------------------------------------------------------------------

Reading the OPT-File                    .... done
Getting information on internals        .... done
Copying old internal coords+grads       .... done
Making the new internal coordinates     .... (new redundants).... done
Validating the new internal coordinates .... (new redundants).... done
Calculating the B-matrix                .... done
Calculating the G,G- and P matrices     .... done
Transforming gradient to internals      .... done
Projecting the internal gradient        .... done
Number of atoms                         ....   4
Number of internal coordinates          ....   7
Current Energy                          ....   -39.829974085 Eh
Current gradient norm                   ....     0.044352676 Eh/bohr
Maximum allowed component of the step   ....  0.300
Current trust radius                    ....  0.300
Updating the Hessian (BFGS)             .... done
Forming the augmented Hessian           .... done
Diagonalizing the augmented Hessian     .... done
Last element of RFO vector              ....  0.999999752
Lowest eigenvalues of augmented Hessian:
 -0.000000181  0.364247071  0.373574723  0.373575012 999.999999957
Length of the computed step             ....  0.000704176
The final length of the internal step   ....  0.000704176
Converting the step to cartesian space:
 Initial RMS(Int)=    0.0002661535
Transforming coordinates:
 Iter   0:  RMS(Cart)=    0.0001955168 RMS(Int)=    0.0002661535
 Iter   1:  RMS(Cart)=    0.0000000000 RMS(Int)=    0.0000000000
Imposing constraints:
 Iter   0:  RMS(Cart)=    0.0000000004 RMS(Int)=    0.0000000017
CONVERGED
done
Storing new coordinates                 .... done

                                .--------------------.
          ----------------------|Geometry convergence|-------------------------
          Item                value                   Tolerance       Converged
          ---------------------------------------------------------------------
          Energy change      -0.0001360503            0.0000050000      NO
          RMS gradient        0.0000969456            0.0001000000      YES
          MAX gradient        0.0001491058            0.0003000000      YES
          RMS step            0.0002661535            0.0020000000      YES
          MAX step            0.0004093556            0.0040000000      YES
          ........................................................
          Max(Bonds)      0.0002      Max(Angles)    0.00
          Max(Dihed)        0.00      Max(Improp)    0.00
          ---------------------------------------------------------------------

       Everything but the energy has converged. However, the energy
       appears to be close enough to convergence to make sure that the
       final evaluation at the new geometry represents the equilibrium energy.
       Convergence will therefore be signaled now


                    ***********************HURRAY********************
                    ***        THE OPTIMIZATION HAS CONVERGED     ***
                    *************************************************


    ---------------------------------------------------------------------------
                         Redundant Internal Coordinates

                          --- Optimized Parameters ---  
                            (Angstroem and degrees)

        Definition                    OldVal   dE/dq     Step     FinalVal
    ----------------------------------------------------------------------------
     1. B(H   1,C   0)                1.0882 -0.000149  0.0002    1.0884   
     2. B(H   2,C   0)                1.0882 -0.000148  0.0002    1.0884   
     3. B(H   3,C   0)                1.0882 -0.000148  0.0002    1.0884   
     4. A(H   2,C   0,H   3)          110.50 -0.016464   -0.00    110.50 C 
     5. A(H   1,C   0,H   2)          110.50 -0.005975   -0.00    110.50 C 
     6. A(H   1,C   0,H   3)          110.50 -0.005975   -0.00    110.50 C 
     7. I(H   1,H   3,H   2,C   0)     52.09  0.021685    0.00     52.09   
    ----------------------------------------------------------------------------
                 *******************************************************
                 *** FINAL ENERGY EVALUATION AT THE STATIONARY POINT ***
                 ***               (AFTER    2 CYCLES)               ***
                 *******************************************************
---------------------------------
CARTESIAN COORDINATES (ANGSTROEM)
---------------------------------
  C      0.000002   -0.000000    0.001987
  H      1.032607   -0.000000   -0.341952
  H     -0.516304    0.894268   -0.341952
  H     -0.516304   -0.894268   -0.341952

----------------------------
CARTESIAN COORDINATES (A.U.)
----------------------------
  NO LB      ZA    FRAG     MASS         X           Y           Z
   0 C     6.0000    0    12.011    0.000003   -0.000000    0.003754
   1 H     1.0000    0     1.008    1.951345   -0.000000   -0.646195
   2 H     1.0000    0     1.008   -0.975674    1.689921   -0.646196
   3 H     1.0000    0     1.008   -0.975674   -1.689921   -0.646196

--------------------------------
INTERNAL COORDINATES (ANGSTROEM)
--------------------------------
 C      0   0   0     0.000000000000     0.00000000     0.00000000
 H      1   0   0     1.088378566113     0.00000000     0.00000000
 H      1   2   0     1.088384424991   110.49999991     0.00000000
 H      1   2   3     1.088384393072   110.49999991   122.61236173

---------------------------
INTERNAL COORDINATES (A.U.)
---------------------------
 C      0   0   0     0.000000000000     0.00000000     0.00000000
 H      1   0   0     2.056737419984     0.00000000     0.00000000
 H      1   2   0     2.056748491657   110.49999991     0.00000000
 H      1   2   3     2.056748431340   110.49999991   122.61236173

---------------------
BASIS SET INFORMATION
---------------------
There are 2 groups of distinct atoms

 Group   1 Type C   : 12s6p3d1f contracted to 6s3p3d1f pattern {621111/411/111/1}
 Group   2 Type H   : 5s2p contracted to 3s2p pattern {311/11}

Atom   0C    basis set group =>   1
Atom   1H    basis set group =>   2
Atom   2H    basis set group =>   2
Atom   3H    basis set group =>   2
---------------------------------
AUXILIARY/J BASIS SET INFORMATION
---------------------------------
There are 2 groups of distinct atoms

 Group   1 Type C   : 12s5p4d2f1g contracted to 6s4p3d1f1g pattern {711111/2111/211/2/1}
 Group   2 Type H   : 5s2p1d contracted to 3s1p1d pattern {311/2/1}

[...]

  NA   - Mulliken gross atomic population
  ZA   - Total nuclear charge
  QA   - Mulliken gross atomic charge
  VA   - Mayer's total valence
  BVA  - Mayer's bonded valence
  FA   - Mayer's free valence

  ATOM       NA         ZA         QA         VA         BVA        FA
  0 C      6.7024     6.0000    -0.7024     3.7766     2.9552     0.8214
  1 H      0.7661     1.0000     0.2339     1.0106     1.0093     0.0013
  2 H      0.7657     1.0000     0.2343     1.0102     1.0089     0.0013
  3 H      0.7657     1.0000     0.2343     1.0102     1.0089     0.0013

  Mayer bond orders larger than 0.100000
B(  0-C ,  1-H ) :   0.9854 B(  0-C ,  2-H ) :   0.9849 B(  0-C ,  3-H ) :   0.9849 


-------
TIMINGS
-------

Total SCF time: 0 days 0 hours 0 min 10 sec 

Total time                  ....      10.276 sec
Sum of individual times     ....       8.401 sec  ( 81.8%)

Fock matrix formation       ....       6.566 sec  ( 63.9%)
  Split-RI-J                ....       0.784 sec  ( 11.9% of F)
  Chain of spheres X        ....       0.928 sec  ( 14.1% of F)
  XC integration            ....       1.259 sec  ( 19.2% of F)
    Basis function eval.    ....       0.025 sec  (  2.0% of XC)
    Density eval.           ....       0.029 sec  (  2.3% of XC)
    XC-Functional eval.     ....       0.033 sec  (  2.6% of XC)
    XC-Potential eval.      ....       0.034 sec  (  2.7% of XC)
Diagonalization             ....       0.116 sec  (  1.1%)
Density matrix formation    ....       0.021 sec  (  0.2%)
Population analysis         ....       0.409 sec  (  4.0%)
Initial guess               ....       0.009 sec  (  0.1%)
Orbital Transformation      ....       0.000 sec  (  0.0%)
Orbital Orthonormalization  ....       0.002 sec  (  0.0%)
DIIS solution               ....       0.401 sec  (  3.9%)
Grid generation             ....       0.880 sec  (  8.6%)

Maximum memory used throughout the entire SCF-calculation: 58.5 MB


-------------------------------------------------------------------------------
                          DFT DISPERSION CORRECTION                            
                                                                               
                              DFTD3 V3.1  Rev 1                                
                              USING zero damping                               
-------------------------------------------------------------------------------
The omegaB97X-D3 functional is recognized. Fit by Chai et al.
Active option DFTDOPT                   ...         3   

molecular C6(AA) [au] = 106.980769 


            DFT-D V3
 parameters
 s6 scaling factor         :     1.0000 
 rs6 scaling factor        :     1.2810 
 s8 scaling factor         :     1.0000 
 rs8 scaling factor        :     1.0940 
 Damping factor alpha6     :    14.0000 
 Damping factor alpha8     :    16.0000 
 ad hoc parameters k1-k3   :    16.0000     1.3333    -4.0000 

 Edisp/kcal,au: -0.008126157219  -0.000012949854 
 E6   /kcal   :  -0.001266641 
 E8   /kcal   :  -0.006859516 
 % E8         :  84.412786497 

-------------------------   ----------------
Dispersion correction           -0.000012950
-------------------------   ----------------


-------------------------   --------------------
FINAL SINGLE POINT ENERGY       -39.829974178881
-------------------------   --------------------

                                *** OPTIMIZATION RUN DONE ***

                            ***************************************
                            *     ORCA property calculations      *
                            ***************************************

                                    ---------------------
                                    Active property flags
                                    ---------------------
   (+) Dipole Moment


------------------------------------------------------------------------------
                       ORCA ELECTRIC PROPERTIES CALCULATION
------------------------------------------------------------------------------

Dipole Moment Calculation                       ... on
Quadrupole Moment Calculation                   ... off
Polarizability Calculation                      ... off
GBWName                                         ... /beegfs/scratch/ispackman/PFAS_EPR_calcs/benchmark/JChemEd_CF3_radical/CH3_radical_110.5_degrees_IN-PROGRESS/CH3_radical_110.5_degrees.gbw
Electron density                                ... /beegfs/scratch/ispackman/PFAS_EPR_calcs/benchmark/JChemEd_CF3_radical/CH3_radical_110.5_degrees_IN-PROGRESS/CH3_radical_110.5_degrees.scfp
The origin for moment calculation is the CENTER OF MASS  = ( 0.000002, -0.000000 -0.126971)

-------------
DIPOLE MOMENT
-------------
                                X             Y             Z
Electronic contribution:      0.00018      -0.00000       0.53396
Nuclear contribution   :     -0.00000       0.00000      -0.77333
                        -----------------------------------------
Total Dipole Moment    :      0.00017       0.00000      -0.23936
                        -----------------------------------------
Magnitude (a.u.)       :      0.23936
Magnitude (Debye)      :      0.60842



--------------------
Rotational spectrum 
--------------------
 
Rotational constants in cm-1:     8.881862     8.881808     5.228087 
Rotational constants in MHz : 266271.525621 266269.906816 156734.112592 

 Dipole components along the rotational axes: 
x,y,z [a.u.] :    -0.000000    -0.000174    -0.239365 
x,y,z [Debye]:    -0.000001    -0.000442    -0.608416 

 


           ************************************************************
           *        Program running with 18 parallel MPI-processes    *
           *              working on a common directory               *
           ************************************************************

-------------------------------------------------------------------------------
                               ORCA SCF HESSIAN
-------------------------------------------------------------------------------

                   --------- SHARK INITIALIZATION DONE ---------

Hessian of the Kohn-Sham DFT energy:
Kohn-Sham wavefunction type                      ... UKS
Hartree-Fock exchange scaling                    ...    0.196
Number of operators                              ...    2
Number of atoms                                  ...    4
Basis set dimensions                             ...   64
Integral neglect threshold                       ... 2.5e-11
Integral primitive cutoff                        ... 2.5e-12

Setting up DFT Hessian calculations              ... 

HESS GRID
---------

General Integration Accuracy     IntAcc      ... 4.629
Radial Grid Type                 RadialGrid  ... OptM3 with GC (2021)
Angular Grid (max. ang.)         AngularGrid ... 5 (Lebedev-434)
Angular grid pruning method      GridPruning ... 4 (adaptive)
Weight generation scheme         WeightScheme... Becke
Basis function cutoff            BFCut       ... 1.0000e-11
Integration weight cutoff        WCut        ... 1.0000e-14
Angular grids for H and He will be reduced by one unit
Partially contracted basis set               ... off
Rotationally invariant grid construction     ... off

Total number of grid points                  ...    27251
Total number of batches                      ...      427
Average number of points per batch           ...       63
Average number of grid points per atom       ...     6813

Building densities                               ... done   (      0.0 sec)
Calculating rho(r) on the grid                   ... done   (      0.1 sec)
Building xc-kernel on the grid                   ... done   (      0.1 sec)
                                                     done   (      0.5 sec)

Nuclear repulsion Hessian  (SHARK)               ... done   (      0.0 sec)

----------------------------------------------
Forming right-hand sides of CP-SCF equations     ...
----------------------------------------------
One electron integral derivatives  (SHARK)       ... done   (      0.0 sec)
Transforming the overlap derivative matrices     ... done   (      0.0 sec)
Making the Q(x) pseudodensities                  ... done   (      0.0 sec)
Adding the E*S(x)*S(y) terms to the Hessian      ... done   (      0.0 sec)
Calculating energy weighted overlap derivatives  ... done   (      0.1 sec)
Two electron integral derivatives (SHARK-RI)     ... done   (      0.7 sec)
Exchange-correlation integral derivatives        ... done   (      0.4 sec)
tr(F(y)Q(x)) contribution to the Hessian         ... done   (      0.0 sec)
Response fock operator R(S(x)) (SHARK-RIJCOSX)   ... done   (      0.7 sec)
XC Response fock operator R(S(x))                ... done   (      0.1 sec)
tr(F(y)S(x)) contribution to the Hessian         ... done   (      0.0 sec)
Transforming and finalizing RHSs                 ... done   (      0.0 sec)

----------------------------------------------
Solving the CP-SCF equations (RIJCOSX)           ...
----------------------------------------------
     CP-SCF ITERATION   0:   9.2242e-02 (   0.5 sec   0/ 12 done)
     CP-SCF ITERATION   1:   2.5574e-02 (   0.4 sec   0/ 12 done)
     CP-SCF ITERATION   2:   6.9894e-03 (   0.4 sec   0/ 12 done)
     CP-SCF ITERATION   3:   2.1902e-03 (   0.4 sec   0/ 12 done)
     CP-SCF ITERATION   4:   4.3707e-04 (   0.4 sec   1/ 12 done)
     CP-SCF ITERATION   5:   9.0967e-05 (   0.5 sec  12/ 12 done)
                    *** THE CP-SCF HAS CONVERGED ***

                                                 ... done   (      3.0 sec)
Forming perturbed density Hessian contributions  ... done   (      0.0 sec)
2nd integral derivative contribs (SHARK-RI)      ... done   (      0.9 sec)
Exchange-correlation Hessian                     ... done   (      0.3 sec)
Dispersion correction in the Hessian             ... done   (      0.1 sec)
Dipole derivatives                               ... (center of mass:  0.000002, -0.000000 -0.126971)done   (      0.2 sec)

Total SCF Hessian time: 0 days 0 hours 0 min 7 sec 

Writing the Hessian file to the disk             ... done


Maximum memory used throughout the entire SCFHESS-calculation: 109.5 MB

-----------------------
VIBRATIONAL FREQUENCIES
-----------------------

Scaling factor for frequencies =  1.000000000  (already applied!)

   0:         0.00 cm**-1
   1:         0.00 cm**-1
   2:         0.00 cm**-1
   3:         0.00 cm**-1
   4:         0.00 cm**-1
   5:         0.00 cm**-1
   6:      1112.49 cm**-1
   7:      1419.53 cm**-1
   8:      1420.41 cm**-1
   9:      3083.07 cm**-1
  10:      3202.05 cm**-1
  11:      3202.06 cm**-1


------------
NORMAL MODES
------------

These modes are the Cartesian displacements weighted by the diagonal matrix
M(i,i)=1/sqrt(m[i]) where m[i] is the mass of the displaced atom
Thus, these vectors are normalized but *not* orthogonal

                  0          1          2          3          4          5    
      0       0.000000   0.000000   0.000000   0.000000   0.000000   0.000000
      1       0.000000   0.000000   0.000000   0.000000   0.000000   0.000000
      2       0.000000   0.000000   0.000000   0.000000   0.000000   0.000000
      3       0.000000   0.000000   0.000000   0.000000   0.000000   0.000000
      4       0.000000   0.000000   0.000000   0.000000   0.000000   0.000000
      5       0.000000   0.000000   0.000000   0.000000   0.000000   0.000000
      6       0.000000   0.000000   0.000000   0.000000   0.000000   0.000000
      7       0.000000   0.000000   0.000000   0.000000   0.000000   0.000000
      8       0.000000   0.000000   0.000000   0.000000   0.000000   0.000000
      9       0.000000   0.000000   0.000000   0.000000   0.000000   0.000000
     10       0.000000   0.000000   0.000000   0.000000   0.000000   0.000000
     11       0.000000   0.000000   0.000000   0.000000   0.000000   0.000000
                  6          7          8          9         10         11    
      0      -0.000748   0.081938   0.000001  -0.000166   0.094118  -0.002443
      1       0.000000   0.000001  -0.081961   0.000000  -0.002442  -0.094100
      2       0.136678   0.001076   0.000000  -0.037180  -0.000038   0.000001
      3      -0.180884   0.122018   0.000001  -0.556585  -0.774028   0.020088
      4      -0.000001  -0.000006   0.774545  -0.000000  -0.000664  -0.025582
      5      -0.544852   0.212525   0.000001   0.147233   0.249179  -0.006467
      6       0.094901  -0.549186   0.388841   0.279284  -0.182703  -0.341327
      7      -0.152415  -0.390280   0.101037  -0.483431   0.359821   0.564470
      8      -0.541878  -0.112673  -0.187808   0.147893  -0.129959  -0.212393
      9       0.094901  -0.549179  -0.388850   0.279284  -0.164751   0.350345
     10       0.152414   0.390278   0.101044   0.483429  -0.330055   0.582376
     11      -0.541878  -0.112676   0.187806   0.147893  -0.118766   0.218849


-----------
IR SPECTRUM
-----------

 Mode   freq       eps      Int      T**2         TX        TY        TZ
       cm**-1   L/(mol*cm) km/mol    a.u.
----------------------------------------------------------------------------
  6:   1112.49   0.004462   22.55  0.001252  ( 0.000085 -0.000000 -0.035378)
  7:   1419.53   0.000615    3.11  0.000135  (-0.011625 -0.000000 -0.000391)
  8:   1420.41   0.000621    3.14  0.000136  (-0.000000  0.011679 -0.000000)
  9:   3083.07   0.000015    0.08  0.000002  (-0.000019  0.000000 -0.001234)
 10:   3202.05   0.003750   18.95  0.000366  ( 0.019112 -0.000500 -0.000026)
 11:   3202.06   0.003806   19.23  0.000371  (-0.000496 -0.019252  0.000001)

* The epsilon (eps) is given for a Dirac delta lineshape.
** The dipole moment derivative (T) already includes vibrational overlap.

The first frequency considered to be a vibration is 6
The total number of vibrations considered is 6


--------------------------
THERMOCHEMISTRY AT 298.15K
--------------------------

Temperature         ... 298.15 K
Pressure            ... 1.00 atm
Total Mass          ... 15.03 AMU

Throughout the following assumptions are being made:
  (1) The electronic state is orbitally nondegenerate
      but the spin degeneracy is treated
  (2) There are no thermally accessible electronically excited states
  (3) Hindered rotations indicated by low frequency modes are not
      treated as such but are treated as vibrations and this may
      cause some error
  (4) All equations used are the standard statistical mechanics
      equations for an ideal gas
  (5) All vibrations are strictly harmonic

freq.    1112.49  E(vib)   ...       0.01 
freq.    1419.53  E(vib)   ...       0.00 
freq.    1420.41  E(vib)   ...       0.00 
freq.    3083.07  E(vib)   ...       0.00 
freq.    3202.05  E(vib)   ...       0.00 
freq.    3202.06  E(vib)   ...       0.00 

------------
INNER ENERGY
------------

The inner energy is: U= E(el) + E(ZPE) + E(vib) + E(rot) + E(trans)
    E(el)   - is the total energy from the electronic structure calculation
              = E(kin-el) + E(nuc-el) + E(el-el) + E(nuc-nuc)
    E(ZPE)  - the the zero temperature vibrational energy from the frequency calculation
    E(vib)  - the the finite temperature correction to E(ZPE) due to population
              of excited vibrational states
    E(rot)  - is the rotational thermal energy
    E(trans)- is the translational thermal energy

Summary of contributions to the inner energy U:
Electronic energy                ...    -39.82997418 Eh
Zero point energy                ...      0.03061768 Eh      19.21 kcal/mol
Thermal vibrational correction   ...      0.00003744 Eh       0.02 kcal/mol
Thermal rotational correction    ...      0.00141627 Eh       0.89 kcal/mol
Thermal translational correction ...      0.00141627 Eh       0.89 kcal/mol
-----------------------------------------------------------------------
Total thermal energy                    -39.79648651 Eh


Summary of corrections to the electronic energy:
(perhaps to be used in another calculation)
Total thermal correction                  0.00286999 Eh       1.80 kcal/mol
Non-thermal (ZPE) correction              0.03061768 Eh      19.21 kcal/mol
-----------------------------------------------------------------------
Total correction                          0.03348767 Eh      21.01 kcal/mol


--------
ENTHALPY
--------

The enthalpy is H = U + kB*T
                kB is Boltzmann's constant
Total free energy                 ...    -39.79648651 Eh 
Thermal Enthalpy correction       ...      0.00094421 Eh       0.59 kcal/mol
-----------------------------------------------------------------------
Total Enthalpy                    ...    -39.79554230 Eh


Note: Rotational entropy computed according to Herzberg 
Infrared and Raman Spectra, Chapter V,1, Van Nostrand Reinhold, 1945 
Point Group:  C3v, Symmetry Number:   3  
Rotational constants in cm-1:     8.881862     8.881808     5.228087 

Vibrational entropy computed according to the QRRHO of S. Grimme
Chem.Eur.J. 2012 18 9955


-------
ENTROPY
-------

The entropy contributions are T*S = T*(S(el)+S(vib)+S(rot)+S(trans))
     S(el)   - electronic entropy
     S(vib)  - vibrational entropy
     S(rot)  - rotational entropy
     S(trans)- translational entropy
The entropies will be listed as multiplied by the temperature to get
units of energy

Electronic entropy                ...      0.00065446 Eh      0.41 kcal/mol
Vibrational entropy               ...      0.00004387 Eh      0.03 kcal/mol
Rotational entropy                ...      0.00563056 Eh      3.53 kcal/mol
Translational entropy             ...      0.01618771 Eh     10.16 kcal/mol
-----------------------------------------------------------------------
Final entropy term                ...      0.02251660 Eh     14.13 kcal/mol

In case the symmetry of your molecule has not been determined correctly
or in case you have a reason to use a different symmetry number we print 
out the resulting rotational entropy values for sn=1,12 :
 --------------------------------------------------------
|  sn= 1 | S(rot)=       0.00666785 Eh      4.18 kcal/mol|
|  sn= 2 | S(rot)=       0.00601340 Eh      3.77 kcal/mol|
|  sn= 3 | S(rot)=       0.00563056 Eh      3.53 kcal/mol|
|  sn= 4 | S(rot)=       0.00535894 Eh      3.36 kcal/mol|
|  sn= 5 | S(rot)=       0.00514825 Eh      3.23 kcal/mol|
|  sn= 6 | S(rot)=       0.00497611 Eh      3.12 kcal/mol|
|  sn= 7 | S(rot)=       0.00483056 Eh      3.03 kcal/mol|
|  sn= 8 | S(rot)=       0.00470448 Eh      2.95 kcal/mol|
|  sn= 9 | S(rot)=       0.00459327 Eh      2.88 kcal/mol|
|  sn=10 | S(rot)=       0.00449380 Eh      2.82 kcal/mol|
|  sn=11 | S(rot)=       0.00440381 Eh      2.76 kcal/mol|
|  sn=12 | S(rot)=       0.00432165 Eh      2.71 kcal/mol|
 --------------------------------------------------------


-------------------
GIBBS FREE ENERGY
-------------------

The Gibbs free energy is G = H - T*S

Total enthalpy                    ...    -39.79554230 Eh 
Total entropy correction          ...     -0.02251660 Eh    -14.13 kcal/mol
-----------------------------------------------------------------------
Final Gibbs free energy         ...    -39.81805890 Eh

For completeness - the Gibbs free energy minus the electronic energy
G-E(el)                           ...      0.01191528 Eh      7.48 kcal/mol


Timings for individual modules:

Sum of individual times         ...       75.200 sec (=   1.253 min)
GTO integral calculation        ...        9.108 sec (=   0.152 min)  12.1 %
SCF iterations                  ...       48.960 sec (=   0.816 min)  65.1 %
SCF Gradient evaluation         ...        6.499 sec (=   0.108 min)   8.6 %
Geometry relaxation             ...        0.162 sec (=   0.003 min)   0.2 %
Analytical frequency calculation...       10.471 sec (=   0.175 min)  13.9 %
                             ****ORCA TERMINATED NORMALLY****
TOTAL RUN TIME: 0 days 0 hours 1 minutes 25 seconds 262 msec

slurmID:    32260112
totalRuntime[s]:    85.306341010
