
                                 *****************
                                 * O   R   C   A *
                                 *****************

                                            #,                                       
                                            ###                                      
                                            ####                                     
                                            #####                                    
                                            ######                                   
                                           ########,                                 
                                     ,,################,,,,,                         
                               ,,#################################,,                 
                          ,,##########################################,,             
                       ,#########################################, ''#####,          
                    ,#############################################,,   '####,        
                  ,##################################################,,,,####,       
                ,###########''''           ''''###############################       
              ,#####''   ,,,,##########,,,,          '''####'''          '####       
            ,##' ,,,,###########################,,,                        '##       
           ' ,,###''''                  '''############,,,                           
         ,,##''                                '''############,,,,        ,,,,,,###''
      ,#''                                            '''#######################'''  
     '                                                          ''''####''''         
             ,#######,   #######,   ,#######,      ##                                
            ,#'     '#,  ##    ##  ,#'     '#,    #''#        ######   ,####,        
            ##       ##  ##   ,#'  ##            #'  '#       #        #'  '#        
            ##       ##  #######   ##           ,######,      #####,   #    #        
            '#,     ,#'  ##    ##  '#,     ,#' ,#      #,         ##   #,  ,#        
             '#######'   ##     ##  '#######'  #'      '#     #####' # '####'        



                  #######################################################
                  #                        -***-                        #
                  #          Department of theory and spectroscopy      #
                  #    Directorship and core code : Frank Neese         #
                  #        Max Planck Institute fuer Kohlenforschung    #
                  #                Kaiser Wilhelm Platz 1               #
                  #                 D-45470 Muelheim/Ruhr               #
                  #                      Germany                        #
                  #                                                     #
                  #                  All rights reserved                #
                  #                        -***-                        #
                  #######################################################


                         Program Version 5.0.4 -  RELEASE  -


 With contributions from (in alphabetic order):
   Daniel Aravena         : Magnetic Suceptibility
   Michael Atanasov       : Ab Initio Ligand Field Theory (pilot matlab implementation)
   Alexander A. Auer      : GIAO ZORA, VPT2 properties, NMR spectrum
   Ute Becker             : Parallelization
   Giovanni Bistoni       : ED, misc. LED, open-shell LED, HFLD
   Martin Brehm           : Molecular dynamics
   Dmytro Bykov           : SCF Hessian
   Vijay G. Chilkuri      : MRCI spin determinant printing, contributions to CSF-ICE
   Dipayan Datta          : RHF DLPNO-CCSD density
   Achintya Kumar Dutta   : EOM-CC, STEOM-CC
   Dmitry Ganyushin       : Spin-Orbit,Spin-Spin,Magnetic field MRCI
   Miquel Garcia          : C-PCM and meta-GGA Hessian, CC/C-PCM, Gaussian charge scheme
   Yang Guo               : DLPNO-NEVPT2, F12-NEVPT2, CIM, IAO-localization
   Andreas Hansen         : Spin unrestricted coupled pair/coupled cluster methods
   Benjamin Helmich-Paris : MC-RPA, TRAH-SCF, COSX integrals
   Lee Huntington         : MR-EOM, pCC
   Robert Izsak           : Overlap fitted RIJCOSX, COSX-SCS-MP3, EOM
   Marcus Kettner         : VPT2
   Christian Kollmar      : KDIIS, OOCD, Brueckner-CCSD(T), CCSD density, CASPT2, CASPT2-K
   Simone Kossmann        : Meta GGA functionals, TD-DFT gradient, OOMP2, MP2 Hessian
   Martin Krupicka        : Initial AUTO-CI
   Lucas Lang             : DCDCAS
   Marvin Lechner         : AUTO-CI (C++ implementation), FIC-MRCC
   Dagmar Lenk            : GEPOL surface, SMD
   Dimitrios Liakos       : Extrapolation schemes; Compound Job, initial MDCI parallelization
   Dimitrios Manganas     : Further ROCIS development; embedding schemes
   Dimitrios Pantazis     : SARC Basis sets
   Anastasios Papadopoulos: AUTO-CI, single reference methods and gradients
   Taras Petrenko         : DFT Hessian,TD-DFT gradient, ASA, ECA, R-Raman, ABS, FL, XAS/XES, NRVS
   Peter Pinski           : DLPNO-MP2, DLPNO-MP2 Gradient
   Christoph Reimann      : Effective Core Potentials
   Marius Retegan         : Local ZFS, SOC
   Christoph Riplinger    : Optimizer, TS searches, QM/MM, DLPNO-CCSD(T), (RO)-DLPNO pert. Triples
   Tobias Risthaus        : Range-separated hybrids, TD-DFT gradient, RPA, STAB
   Michael Roemelt        : Original ROCIS implementation
   Masaaki Saitow         : Open-shell DLPNO-CCSD energy and density
   Barbara Sandhoefer     : DKH picture change effects
   Avijit Sen             : IP-ROCIS
   Kantharuban Sivalingam : CASSCF convergence, NEVPT2, FIC-MRCI
   Bernardo de Souza      : ESD, SOC TD-DFT
   Georgi Stoychev        : AutoAux, RI-MP2 NMR, DLPNO-MP2 response
   Willem Van den Heuvel  : Paramagnetic NMR
   Boris Wezisla          : Elementary symmetry handling
   Frank Wennmohs         : Technical directorship


 We gratefully acknowledge several colleagues who have allowed us to
 interface, adapt or use parts of their codes:
   Stefan Grimme, W. Hujo, H. Kruse, P. Pracht,  : VdW corrections, initial TS optimization,
                  C. Bannwarth, S. Ehlert          DFT functionals, gCP, sTDA/sTD-DF
   Ed Valeev, F. Pavosevic, A. Kumar             : LibInt (2-el integral package), F12 methods
   Garnet Chan, S. Sharma, J. Yang, R. Olivares  : DMRG
   Ulf Ekstrom                                   : XCFun DFT Library
   Mihaly Kallay                                 : mrcc  (arbitrary order and MRCC methods)
   Jiri Pittner, Ondrej Demel                    : Mk-CCSD
   Frank Weinhold                                : gennbo (NPA and NBO analysis)
   Christopher J. Cramer and Donald G. Truhlar   : smd solvation model
   Lars Goerigk                                  : TD-DFT with DH, B97 family of functionals
   V. Asgeirsson, H. Jonsson                     : NEB implementation
   FAccTs GmbH                                   : IRC, NEB, NEB-TS, DLPNO-Multilevel, CI-OPT
                                                   MM, QMMM, 2- and 3-layer-ONIOM, Crystal-QMMM,
                                                   LR-CPCM, SF, NACMEs, symmetry and pop. for TD-DFT,
                                                   nearIR, NL-DFT gradient (VV10), updates on ESD,
                                                   ML-optimized integration grids
   S Lehtola, MJT Oliveira, MAL Marques          : LibXC Library
   Liviu Ungur et al                             : ANISO software


 Your calculation uses the libint2 library for the computation of 2-el integrals
 For citations please refer to: http://libint.valeyev.net

 Your ORCA version has been built with support for libXC version: 5.1.0
 For citations please refer to: https://tddft.org/programs/libxc/

 This ORCA versions uses:
   CBLAS   interface :  Fast vector & matrix operations
   LAPACKE interface :  Fast linear algebra routines
   SCALAPACK package :  Parallel linear algebra routines
   Shared memory     :  Shared parallel matrices
   BLAS/LAPACK       :  OpenBLAS 0.3.15  USE64BITINT DYNAMIC_ARCH NO_AFFINITY SkylakeX SINGLE_THREADED
        Core in use  :  SkylakeX
   Copyright (c) 2011-2014, The OpenBLAS Project


Your calculation utilizes the atom-pairwise dispersion correction
with the zero-damping scheme (D30)
Cite in your paper:
S.Grimme, J.Antony, S.Ehrlich and H.Krieg, J.Chem.Phys., 132, (2010), 154104 
   

XCFun DFT library Copyright 2009-2010 Ulf Ekstrom and contributors.
See http://admol.org/xcfun for more information.
This is free software; see the source code for copying conditions.
There is ABSOLUTELY NO WARRANTY; not even for MERCHANTABILITY or FITNESS FOR A PARTICULAR PURPOSE.
For details see the documentation.
Scientific users of this library should cite U. Ekstrom, L. Visscher, R. Bast, A. J. Thorvaldsen and K. Ruud;
J.Chem.Theor.Comp. 2010, DOI: 10.1021/ct100117s
XCFun Version 0.99 

================================================================================

----- Orbital basis set information -----
Your calculation utilizes the basis: def2-TZVPD
   F. Weigend and R. Ahlrichs, Phys. Chem. Chem. Phys. 7, 3297 (2005).
   D. Rappoport and F. Furche, J. Chem. Phys. 133 134105 (2010).

----- AuxJ basis set information -----
Your calculation utilizes the auxiliary basis: def2/J
   F. Weigend, Phys. Chem. Chem. Phys. 8, 1057 (2006).

================================================================================
                                        WARNINGS
                       Please study these warnings very carefully!
================================================================================


WARNING: Geometry Optimization
  ===> : Switching off AutoStart
         For restart on a previous wavefunction, please use MOREAD

INFO   : the flag for use of the SHARK integral package has been found!

================================================================================
                                       INPUT FILE
================================================================================
NAME = /beegfs/scratch/ispackman/PFAS_EPR_calcs/benchmark/JChemEd_CF3_radical/CH3_radical_100.0_degrees_IN-PROGRESS/CH3_radical_100.0_degrees.inp
|  1> ! UKS TightSCF wB97x-D3 def2-TZVPD xyzfile opt freq
|  2> 
|  3> # CH3 radical 100.0 degrees fixed
|  4> 
|  5> %maxcore 1000
|  6> %pal
|  7> nprocs 18
|  8> end
|  9> 
| 10> %geom Constraints
| 11>         { A * 0 * C }
| 12>     end
| 13> end
| 14> * xyz 0 2
| 15> C 0.00 0.00 0.00
| 16> H 0.9553160854 0.0000000000 -0.5037570615
| 17> H -0.4776580427 0.8273279986 -0.5037570615
| 18> H -0.4776580427 -0.8273279986 -0.5037570615
| 19> **                         ****END OF INPUT****
================================================================================

                       *****************************
                       * Geometry Optimization Run *
                       *****************************

Geometry optimization settings:
Update method            Update   .... BFGS
Choice of coordinates    CoordSys .... Z-matrix Internals
Initial Hessian          InHess   .... Almoef's Model

Convergence Tolerances:
Energy Change            TolE     ....  5.0000e-06 Eh
Max. Gradient            TolMAXG  ....  3.0000e-04 Eh/bohr
RMS Gradient             TolRMSG  ....  1.0000e-04 Eh/bohr
Max. Displacement        TolMAXD  ....  4.0000e-03 bohr
RMS Displacement         TolRMSD  ....  2.0000e-03 bohr
Strict Convergence                ....  False
------------------------------------------------------------------------------
                        ORCA OPTIMIZATION COORDINATE SETUP
------------------------------------------------------------------------------

The optimization will be done in new redundant internal coordinates
Making redundant internal coordinates   ...  (new redundants) done
Evaluating the initial hessian          ...  (Almloef) done
Evaluating the coordinates              ...  done
Calculating the B-matrix                .... done
Calculating the G-matrix                .... done
Diagonalizing the G-matrix              .... done
Imposing constraints:
 Iter   0:  RMS(Cart)=    0.0000000000 RMS(Int)=    0.0000000000
CONVERGED
Will constrain atom 0 coordinate 1 
Will constrain atom 0 coordinate 2 
Will constrain atom 1 coordinate 2 
The first mode is                       ....    1
The number of degrees of freedom        ....    6
Storing new coordinates                 .... done

    -----------------------------------------------------------------
                    Redundant Internal Coordinates


    -----------------------------------------------------------------
         Definition                    Initial Value    Approx d2E/dq
    -----------------------------------------------------------------
      1. B(H   1,C   0)                  1.0800         0.373575   
      2. B(H   2,C   0)                  1.0800         0.373575   
      3. B(H   3,C   0)                  1.0800         0.373575   
      4. A(H   2,C   0,H   3)          100.0000         0.294224 C 
      5. A(H   1,C   0,H   2)          100.0000         0.294224 C 
      6. A(H   1,C   0,H   3)          100.0000         0.294224 C 
      7. I(H   1,H   3,H   2,C   0)     74.3269         0.002609   
    -----------------------------------------------------------------

Number of atoms                         .... 4
Number of degrees of freedom            .... 7

         *************************************************************
         *                GEOMETRY OPTIMIZATION CYCLE   1            *
         *************************************************************
---------------------------------
CARTESIAN COORDINATES (ANGSTROEM)
---------------------------------
  C      0.000000    0.000000    0.000000
  H      0.955316    0.000000   -0.503757
  H     -0.477658    0.827328   -0.503757
  H     -0.477658   -0.827328   -0.503757

----------------------------
CARTESIAN COORDINATES (A.U.)
----------------------------
  NO LB      ZA    FRAG     MASS         X           Y           Z
   0 C     6.0000    0    12.011    0.000000    0.000000    0.000000
   1 H     1.0000    0     1.008    1.805286    0.000000   -0.951963
   2 H     1.0000    0     1.008   -0.902643    1.563423   -0.951963
   3 H     1.0000    0     1.008   -0.902643   -1.563423   -0.951963

--------------------------------
INTERNAL COORDINATES (ANGSTROEM)
--------------------------------
 C      0   0   0     0.000000000000     0.00000000     0.00000000
 H      1   0   0     1.080000000016     0.00000000     0.00000000
 H      1   2   0     1.080000000016   100.00000000     0.00000000
 H      1   2   3     1.080000000016   100.00000000   102.13045785

---------------------------
INTERNAL COORDINATES (A.U.)
---------------------------
 C      0   0   0     0.000000000000     0.00000000     0.00000000
 H      1   0   0     2.040904224666     0.00000000     0.00000000
 H      1   2   0     2.040904224665   100.00000000     0.00000000
 H      1   2   3     2.040904224665   100.00000000   102.13045785

---------------------
BASIS SET INFORMATION
---------------------
There are 2 groups of distinct atoms

 Group   1 Type C   : 12s6p3d1f contracted to 6s3p3d1f pattern {621111/411/111/1}
 Group   2 Type H   : 5s2p contracted to 3s2p pattern {311/11}

Atom   0C    basis set group =>   1
Atom   1H    basis set group =>   2
Atom   2H    basis set group =>   2
Atom   3H    basis set group =>   2
---------------------------------
AUXILIARY/J BASIS SET INFORMATION
---------------------------------
There are 2 groups of distinct atoms

 Group   1 Type C   : 12s5p4d2f1g contracted to 6s4p3d1f1g pattern {711111/2111/211/2/1}
 Group   2 Type H   : 5s2p1d contracted to 3s1p1d pattern {311/2/1}

Atom   0C    basis set group =>   1
Atom   1H    basis set group =>   2
Atom   2H    basis set group =>   2
Atom   3H    basis set group =>   2


           ************************************************************
           *        Program running with 18 parallel MPI-processes    *
           *              working on a common directory               *
           ************************************************************
------------------------------------------------------------------------------
                           ORCA GTO INTEGRAL CALCULATION
                           -- RI-GTO INTEGRALS CHOSEN --
------------------------------------------------------------------------------
------------------------------------------------------------------------------
                   ___                                                        
                  /   \      - P O W E R E D   B Y -                         
                 /     \                                                     
                 |  |  |   _    _      __       _____    __    __             
                 |  |  |  | |  | |    /  \     |  _  \  |  |  /  |          
                  \  \/   | |  | |   /    \    | | | |  |  | /  /          
                 / \  \   | |__| |  /  /\  \   | |_| |  |  |/  /          
                |  |  |   |  __  | /  /__\  \  |    /   |      \           
                |  |  |   | |  | | |   __   |  |    \   |  |\   \          
                \     /   | |  | | |  |  |  |  | |\  \  |  | \   \       
                 \___/    |_|  |_| |__|  |__|  |_| \__\ |__|  \__/        
                                                                              
                      - O R C A' S   B I G   F R I E N D -                    
                                      &                                       
                       - I N T E G R A L  F E E D E R -                       
                                                                              
 v1 FN, 2020, v2 2021                                                         
------------------------------------------------------------------------------


Reading SHARK input file /beegfs/scratch/ispackman/PFAS_EPR_calcs/benchmark/JChemEd_CF3_radical/CH3_radical_100.0_degrees_IN-PROGRESS/CH3_radical_100.0_degrees.SHARKINP.tmp ... ok
----------------------
SHARK INTEGRAL PACKAGE
----------------------

Number of atoms                             ...      4
Number of basis functions                   ...     64
Number of shells                            ...     28
Maximum angular momentum                    ...      3
Integral batch strategy                     ... SHARK/LIBINT Hybrid
RI-J (if used) integral strategy            ... SPLIT-RIJ (Revised 2003 algorithm where possible)
Printlevel                                  ...      1
Contraction scheme used                     ... SEGMENTED contraction
Coulomb Range Separation                    ... NOT USED
Exchange Range Separation                   ... Long Range
   Mu parameter                             ...  0.250000
   Scaling (regular/separated)              ...  0.195728  0.804272
Finite Nucleus Model                        ... NOT USED
Auxiliary Coulomb fitting basis             ... AVAILABLE
   # of basis functions in Aux-J            ...     82
   # of shells in Aux-J                     ...     30
   Maximum angular momentum in Aux-J        ...      4
Auxiliary J/K fitting basis                 ... NOT available
Auxiliary Correlation fitting basis         ... NOT available
Auxiliary 'external' fitting basis          ... NOT available
Integral threshold                          ...     2.500000e-11
Primitive cut-off                           ...     2.500000e-12
Primitive pair pre-selection threshold      ...     2.500000e-12

Calculating pre-screening integrals         ... done (  0.0 sec) Dimension = 28
Organizing shell pair data                  ... done (  0.0 sec)
Shell pair information
Total number of shell pairs                 ...       406
Shell pairs after pre-screening             ...       406
Total number of primitive shell pairs       ...       977
Primitive shell pairs kept                  ...       947
          la=0 lb=0:    120 shell pairs
          la=1 lb=0:    135 shell pairs
          la=1 lb=1:     45 shell pairs
          la=2 lb=0:     45 shell pairs
          la=2 lb=1:     27 shell pairs
          la=2 lb=2:      6 shell pairs
          la=3 lb=0:     15 shell pairs
          la=3 lb=1:      9 shell pairs
          la=3 lb=2:      3 shell pairs
          la=3 lb=3:      1 shell pairs

Calculating one electron integrals          ... done (  0.0 sec)
Calculating RI/J V-Matrix + Cholesky decomp.... done (  0.0 sec)
Calculating Nuclear repulsion               ... done (  0.0 sec) ENN=      9.779053172975 Eh

SHARK setup successfully completed in   0.3 seconds

Maximum memory used throughout the entire GTOINT-calculation: 14.0 MB


           ************************************************************
           *        Program running with 18 parallel MPI-processes    *
           *              working on a common directory               *
           ************************************************************
-------------------------------------------------------------------------------
                                 ORCA SCF
-------------------------------------------------------------------------------

------------
SCF SETTINGS
------------
Hamiltonian:
 Density Functional     Method          .... DFT(GTOs)
 Exchange Functional    Exchange        .... WB97X-D3
 Correlation Functional Correlation     .... WB97X-D3
 Gradients option       PostSCFGGA      .... off
 Hybrid DFT is turned on
   Fraction HF Exchange ScalHFX         ....  0.195728
   Scaling of DF-GGA-X  ScalDFX         ....  0.000000
   Scaling of DF-GGA-C  ScalDFC         ....  1.000000
   Scaling of DF-LDA-C  ScalLDAC        ....  1.000000
   Perturbative correction              ....  0.000000
   Density functional embedding theory  .... OFF
 Long-range corrected/Screened/Range-Separated Hybrid DFT is turned on
   Amount of maximum screened exact exchange              ....  0.804272
   Range separation parameter mu (erf(mu*r12)/r12)        ....  0.250000
 RI-approximation to the Coulomb term is turned on
   Number of AuxJ basis functions       .... 82
   RIJ-COSX (HFX calculated with COS-X)).... on


General Settings:
 Integral files         IntName         .... /beegfs/scratch/ispackman/PFAS_EPR_calcs/benchmark/JChemEd_CF3_radical/CH3_radical_100.0_degrees_IN-PROGRESS/CH3_radical_100.0_degrees
 Hartree-Fock type      HFTyp           .... UHF
 Total Charge           Charge          ....    0
 Multiplicity           Mult            ....    2
 Number of Electrons    NEL             ....    9
 Basis Dimension        Dim             ....   64
 Nuclear Repulsion      ENuc            ....      9.7790531730 Eh

Convergence Acceleration:
 DIIS                   CNVDIIS         .... on
   Start iteration      DIISMaxIt       ....    12
   Startup error        DIISStart       ....  0.200000
   # of expansion vecs  DIISMaxEq       ....     5
   Bias factor          DIISBfac        ....   1.050
   Max. coefficient     DIISMaxC        ....  10.000
 Trust-Rad. Augm. Hess. CNVTRAH         .... auto
   Auto Start mean grad. ratio tolernc. ....  1.125000
   Auto Start start iteration           ....    20
   Auto Start num. interpolation iter.  ....    10
   Max. Number of Micro iterations      ....    16
   Max. Number of Macro iterations      .... Maxiter - #DIIS iter
   Number of Davidson start vectors     ....     2
   Converg. threshold I  (grad. norm)   ....   1.000e-05
   Converg. threshold II (energy diff.) ....   1.000e-08
   Grad. Scal. Fac. for Micro threshold ....   0.100
   Minimum threshold for Micro iter.    ....   0.010
   NR start threshold (gradient norm)   ....   0.001
   Initial trust radius                 ....   0.400
   Minimum AH scaling param. (alpha)    ....   1.000
   Maximum AH scaling param. (alpha)    .... 1000.000
   Orbital update algorithm             .... Taylor
   White noise on init. David. guess    .... on
   Maximum white noise                  ....   0.010
   Quad. conv. algorithm                .... NR
 SOSCF                  CNVSOSCF        .... off
 Level Shifting         CNVShift        .... on
   Level shift para.    LevelShift      ....    0.2500
   Turn off err/grad.   ShiftErr        ....    0.0010
 Zerner damping         CNVZerner       .... off
 Static damping         CNVDamp         .... on
   Fraction old density DampFac         ....    0.7000
   Max. Damping (<1)    DampMax         ....    0.9800
   Min. Damping (>=0)   DampMin         ....    0.0000
   Turn off err/grad.   DampErr         ....    0.1000
 Fernandez-Rico         CNVRico         .... off

SCF Procedure:
 Maximum # iterations   MaxIter         ....   125
 SCF integral mode      SCFMode         .... Direct
   Integral package                     .... SHARK and LIBINT hybrid scheme
 Reset frequency        DirectResetFreq ....    20
 Integral Threshold     Thresh          ....  2.500e-11 Eh
 Primitive CutOff       TCut            ....  2.500e-12 Eh

Convergence Tolerance:
 Convergence Check Mode ConvCheckMode   .... Total+1el-Energy
 Convergence forced     ConvForced      .... 0
 Energy Change          TolE            ....  1.000e-08 Eh
 1-El. energy change                    ....  1.000e-05 Eh
 DIIS Error             TolErr          ....  5.000e-07


Diagonalization of the overlap matrix:
Smallest eigenvalue                        ... 3.932e-05
Time for diagonalization                   ...    0.002 sec
Threshold for overlap eigenvalues          ... 1.000e-08
Number of eigenvalues below threshold      ... 0
Time for construction of square roots      ...    0.015 sec
Total time needed                          ...    0.018 sec

Time for model grid setup =    0.038 sec

------------------------------
INITIAL GUESS: MODEL POTENTIAL
------------------------------
Loading Hartree-Fock densities                     ... done
Calculating cut-offs                               ... done
Initializing the effective Hamiltonian             ... done
Setting up the integral package (SHARK)            ... done
Starting the Coulomb interaction                   ... done (   0.1 sec)
Reading the grid                                   ... done
Mapping shells                                     ... done
Starting the XC term evaluation                    ... done (   0.0 sec)
  promolecular density results
     # of electrons  =      8.997917801
     EX              =     -5.936881079
     EC              =     -0.260372322
     EX+EC           =     -6.197253401
Transforming the Hamiltonian                       ... done (   0.0 sec)
Diagonalizing the Hamiltonian                      ... done (   0.0 sec)
Back transforming the eigenvectors                 ... done (   0.0 sec)
Now organizing SCF variables                       ... done
                      ------------------
                      INITIAL GUESS DONE (   0.1 sec)
                      ------------------
-------------------
DFT GRID GENERATION
-------------------

General Integration Accuracy     IntAcc      ... 4.388
Radial Grid Type                 RadialGrid  ... OptM3 with GC (2021)
Angular Grid (max. ang.)         AngularGrid ... 4 (Lebedev-302)
Angular grid pruning method      GridPruning ... 4 (adaptive)
Weight generation scheme         WeightScheme... Becke
Basis function cutoff            BFCut       ... 1.0000e-11
Integration weight cutoff        WCut        ... 1.0000e-14
Angular grids for H and He will be reduced by one unit
Partially contracted basis set               ... off
Rotationally invariant grid construction     ... off

Total number of grid points                  ...    17039
Total number of batches                      ...      268
Average number of points per batch           ...       63
Average number of grid points per atom       ...     4260
Time for grid setup =    0.084 sec

--------------------
COSX GRID GENERATION
--------------------

GRIDX 1
-------
General Integration Accuracy     IntAcc      ... 3.816
Radial Grid Type                 RadialGrid  ... OptM3 with GC (2021)
Angular Grid (max. ang.)         AngularGrid ... 1 (Lebedev-50)
Angular grid pruning method      GridPruning ... 4 (adaptive)
Weight generation scheme         WeightScheme... Becke
Basis function cutoff            BFCut       ... 1.0000e-11
Integration weight cutoff        WCut        ... 1.0000e-14
Angular grids for H and He will be reduced by one unit
Partially contracted basis set               ... on
Rotationally invariant grid construction     ... off

Total number of grid points                  ...     2145
Total number of batches                      ...       36
Average number of points per batch           ...       59
Average number of grid points per atom       ...      536
UseSFitting                                  ... on

GRIDX 2
-------
General Integration Accuracy     IntAcc      ... 4.020
Radial Grid Type                 RadialGrid  ... OptM3 with GC (2021)
Angular Grid (max. ang.)         AngularGrid ... 2 (Lebedev-110)
Angular grid pruning method      GridPruning ... 4 (adaptive)
Weight generation scheme         WeightScheme... Becke
Basis function cutoff            BFCut       ... 1.0000e-11
Integration weight cutoff        WCut        ... 1.0000e-14
Angular grids for H and He will be reduced by one unit
Partially contracted basis set               ... on
Rotationally invariant grid construction     ... off

Total number of grid points                  ...     5040
Total number of batches                      ...       80
Average number of points per batch           ...       63
Average number of grid points per atom       ...     1260
UseSFitting                                  ... on

GRIDX 3
-------
General Integration Accuracy     IntAcc      ... 4.338
Radial Grid Type                 RadialGrid  ... OptM3 with GC (2021)
Angular Grid (max. ang.)         AngularGrid ... 3 (Lebedev-194)
Angular grid pruning method      GridPruning ... 4 (adaptive)
Weight generation scheme         WeightScheme... Becke
Basis function cutoff            BFCut       ... 1.0000e-11
Integration weight cutoff        WCut        ... 1.0000e-14
Angular grids for H and He will be reduced by one unit
Partially contracted basis set               ... on
Rotationally invariant grid construction     ... off

Total number of grid points                  ...    11715
Total number of batches                      ...      186
Average number of points per batch           ...       62
Average number of grid points per atom       ...     2929
UseSFitting                                  ... on

Time for X-Grid setup             =    0.246 sec

--------------
SCF ITERATIONS
--------------
ITER       Energy         Delta-E        Max-DP      RMS-DP      [F,P]     Damp
               ***  Starting incremental Fock matrix formation  ***
  0    -39.7714015236   0.000000000000 0.06667132  0.00125701  0.0758075 0.7000
  1    -39.7851012339  -0.013699710289 0.06110942  0.00110264  0.0487233 0.7000
                               ***Turning on DIIS***
  2    -39.7928866017  -0.007785367860 0.12996166  0.00239553  0.0282205 0.0000
  3    -39.8064774334  -0.013590831704 0.04212674  0.00077049  0.0191854 0.0000
  4    -39.8079930728  -0.001515639386 0.01397228  0.00023806  0.0032883 0.0000
  5    -39.8080595952  -0.000066522402 0.01244515  0.00020319  0.0016474 0.0000
  6    -39.8080820368  -0.000022441615 0.01322883  0.00020818  0.0006272 0.0000
               *** Restarting incremental Fock matrix formation ***
                                   *** Resetting DIIS ***
  7    -39.8080905206  -0.000008483760 0.00122823  0.00001931  0.0000836 0.0000
  8    -39.8080906726  -0.000000152038 0.00076647  0.00001208  0.0000391 0.0000
  9    -39.8080907195  -0.000000046897 0.00002369  0.00000081  0.0000163 0.0000
 10    -39.8080907221  -0.000000002559 0.00000923  0.00000030  0.0000064 0.0000
                 **** Energy Check signals convergence ****

               *****************************************************
               *                     SUCCESS                       *
               *           SCF CONVERGED AFTER  11 CYCLES          *
               *****************************************************

Old exchange energy                            =     -2.173392780 Eh
New exchange energy                            =     -2.173395733 Eh
Exchange energy change after final integration =     -0.000002953 Eh
Total energy after final integration           =    -39.808093675 Eh
Final COS-X integration done in                =     0.122 sec

----------------
TOTAL SCF ENERGY
----------------

Total Energy       :          -39.80809368 Eh           -1083.23330 eV

Components:
Nuclear Repulsion  :            9.77905317 Eh             266.10157 eV
Electronic Energy  :          -49.58714685 Eh           -1349.33486 eV
One Electron Energy:          -71.79723543 Eh           -1953.70210 eV
Two Electron Energy:           22.21008858 Eh             604.36724 eV
Max COSX asymmetry :            0.00000012 Eh               0.00000 eV

Virial components:
Potential Energy   :          -79.47477176 Eh           -2162.61848 eV
Kinetic Energy     :           39.66667808 Eh            1079.38519 eV
Virial Ratio       :            2.00356510


DFT components:
N(Alpha)           :        4.999996988937 electrons
N(Beta)            :        4.000000214860 electrons
N(Total)           :        8.999997203797 electrons
E(XC)              :       -4.316736092151 Eh       
DFET-embed. en.    :        0.000000000000 Eh       

---------------
SCF CONVERGENCE
---------------

  Last Energy change         ...   -2.2499e-10  Tolerance :   1.0000e-08
  Last MAX-Density change    ...    0.0000e+00  Tolerance :   1.0000e-07
  Last RMS-Density change    ...    0.0000e+00  Tolerance :   5.0000e-09
  Last DIIS Error            ...    1.2702e-06  Tolerance :   5.0000e-07

             **** THE GBW FILE WAS UPDATED (/beegfs/scratch/ispackman/PFAS_EPR_calcs/benchmark/JChemEd_CF3_radical/CH3_radical_100.0_degrees_IN-PROGRESS/CH3_radical_100.0_degrees.gbw) ****
             **** DENSITY /beegfs/scratch/ispackman/PFAS_EPR_calcs/benchmark/JChemEd_CF3_radical/CH3_radical_100.0_degrees_IN-PROGRESS/CH3_radical_100.0_degrees.scfp WAS UPDATED ****
             **** ENERGY FILE WAS UPDATED (/beegfs/scratch/ispackman/PFAS_EPR_calcs/benchmark/JChemEd_CF3_radical/CH3_radical_100.0_degrees_IN-PROGRESS/CH3_radical_100.0_degrees.en.tmp) ****
----------------------
UHF SPIN CONTAMINATION
----------------------

Warning: in a DFT calculation there is little theoretical justification to 
         calculate <S**2> as in Hartree-Fock theory. We will do it anyways
         but you should keep in mind that the values have only limited relevance

Expectation value of <S**2>     :     0.753030
Ideal value S*(S+1) for S=0.5   :     0.750000
Deviation                       :     0.003030

             **** THE GBW FILE WAS UPDATED (/beegfs/scratch/ispackman/PFAS_EPR_calcs/benchmark/JChemEd_CF3_radical/CH3_radical_100.0_degrees_IN-PROGRESS/CH3_radical_100.0_degrees.gbw) ****
             **** DENSITY /beegfs/scratch/ispackman/PFAS_EPR_calcs/benchmark/JChemEd_CF3_radical/CH3_radical_100.0_degrees_IN-PROGRESS/CH3_radical_100.0_degrees.scfp WAS UPDATED ****
----------------
ORBITAL ENERGIES
----------------
                 SPIN UP ORBITALS
  NO   OCC          E(Eh)            E(eV) 
   0   1.0000     -10.294886      -280.1381 
   1   1.0000      -0.820450       -22.3256 
   2   1.0000      -0.494539       -13.4571 
   3   1.0000      -0.494507       -13.4562 
   4   1.0000      -0.386671       -10.5219 
   5   0.0000       0.075142         2.0447 
   6   0.0000       0.161587         4.3970 
   7   0.0000       0.161594         4.3972 
   8   0.0000       0.176013         4.7896 
   9   0.0000       0.194108         5.2820 
  10   0.0000       0.194112         5.2821 
  11   0.0000       0.234694         6.3864 
  12   0.0000       0.253153         6.8886 
  13   0.0000       0.253157         6.8888 
  14   0.0000       0.315928         8.5968 
  15   0.0000       0.351838         9.5740 
  16   0.0000       0.351846         9.5742 
  17   0.0000       0.356108         9.6902 
  18   0.0000       0.379610        10.3297 
  19   0.0000       0.383527        10.4363 
  20   0.0000       0.383532        10.4364 
  21   0.0000       0.397875        10.8267 
  22   0.0000       0.397883        10.8270 
  23   0.0000       0.533012        14.5040 
  24   0.0000       0.560899        15.2628 
  25   0.0000       0.560908        15.2631 
  26   0.0000       0.634155        17.2562 
  27   0.0000       0.783910        21.3313 
  28   0.0000       0.789711        21.4891 
  29   0.0000       0.789717        21.4893 
  30   0.0000       0.868843        23.6424 
  31   0.0000       0.868855        23.6427 
  32   0.0000       0.971927        26.4475 
  33   0.0000       1.161330        31.6014 
  34   0.0000       1.161362        31.6023 
  35   0.0000       1.647923        44.8423 
  36   0.0000       1.741997        47.4021 
  37   0.0000       1.742077        47.4043 
  38   0.0000       1.769835        48.1597 
  39   0.0000       1.814152        49.3656 
  40   0.0000       1.938877        52.7595 
  41   0.0000       1.938914        52.7605 
  42   0.0000       2.201264        59.8995 
  43   0.0000       2.221685        60.4551 
  44   0.0000       2.221768        60.4574 
  45   0.0000       2.425610        66.0042 
  46   0.0000       2.644546        71.9617 
  47   0.0000       2.644578        71.9626 
  48   0.0000       2.723417        74.1079 
  49   0.0000       2.723523        74.1108 
  50   0.0000       2.811001        76.4912 
  51   0.0000       3.075117        83.6782 
  52   0.0000       3.155460        85.8644 
  53   0.0000       3.155543        85.8667 
  54   0.0000       3.300872        89.8213 
  55   0.0000       3.313357        90.1610 
  56   0.0000       3.313394        90.1620 
  57   0.0000       3.367937        91.6462 
  58   0.0000       3.720643       101.2439 
  59   0.0000       3.720698       101.2453 
  60   0.0000       4.361220       118.6748 
  61   0.0000       4.465786       121.5202 
  62   0.0000       4.466020       121.5266 
  63   0.0000      22.179584       603.5372 

                 SPIN DOWN ORBITALS
  NO   OCC          E(Eh)            E(eV) 
   0   1.0000     -10.283296      -279.8227 
   1   1.0000      -0.784871       -21.3574 
   2   1.0000      -0.479057       -13.0358 
   3   1.0000      -0.479040       -13.0353 
   4   0.0000      -0.033751        -0.9184 
   5   0.0000       0.083545         2.2734 
   6   0.0000       0.166616         4.5339 
   7   0.0000       0.166622         4.5340 
   8   0.0000       0.200880         5.4662 
   9   0.0000       0.200888         5.4664 
  10   0.0000       0.211827         5.7641 
  11   0.0000       0.250045         6.8041 
  12   0.0000       0.257135         6.9970 
  13   0.0000       0.257135         6.9970 
  14   0.0000       0.325244         8.8503 
  15   0.0000       0.367442         9.9986 
  16   0.0000       0.367448         9.9988 
  17   0.0000       0.369992        10.0680 
  18   0.0000       0.379457        10.3255 
  19   0.0000       0.390796        10.6341 
  20   0.0000       0.390798        10.6342 
  21   0.0000       0.406617        11.0646 
  22   0.0000       0.406620        11.0647 
  23   0.0000       0.564951        15.3731 
  24   0.0000       0.564959        15.3733 
  25   0.0000       0.569970        15.5097 
  26   0.0000       0.642852        17.4929 
  27   0.0000       0.791619        21.5411 
  28   0.0000       0.802079        21.8257 
  29   0.0000       0.802080        21.8257 
  30   0.0000       0.889409        24.2021 
  31   0.0000       0.889430        24.2026 
  32   0.0000       0.989987        26.9389 
  33   0.0000       1.171977        31.8911 
  34   0.0000       1.172006        31.8919 
  35   0.0000       1.717509        46.7358 
  36   0.0000       1.751386        47.6576 
  37   0.0000       1.751478        47.6601 
  38   0.0000       1.771141        48.1952 
  39   0.0000       1.828341        49.7517 
  40   0.0000       1.954614        53.1878 
  41   0.0000       1.954665        53.1891 
  42   0.0000       2.204901        59.9984 
  43   0.0000       2.232570        60.7513 
  44   0.0000       2.232618        60.7526 
  45   0.0000       2.440575        66.4114 
  46   0.0000       2.650121        72.1134 
  47   0.0000       2.650121        72.1134 
  48   0.0000       2.749100        74.8068 
  49   0.0000       2.749143        74.8080 
  50   0.0000       2.833913        77.1147 
  51   0.0000       3.121643        84.9442 
  52   0.0000       3.202865        87.1544 
  53   0.0000       3.202892        87.1551 
  54   0.0000       3.322259        90.4033 
  55   0.0000       3.350158        91.1624 
  56   0.0000       3.350206        91.1637 
  57   0.0000       3.396910        92.4346 
  58   0.0000       3.765230       102.4571 
  59   0.0000       3.765239       102.4574 
  60   0.0000       4.385360       119.3317 
  61   0.0000       4.488243       122.1313 
  62   0.0000       4.488461       122.1372 
  63   0.0000      22.199628       604.0826 

                    ********************************
                    * MULLIKEN POPULATION ANALYSIS *
                    ********************************

--------------------------------------------
MULLIKEN ATOMIC CHARGES AND SPIN POPULATIONS
--------------------------------------------
   0 C :   -0.692095    0.885347
   1 H :    0.230404    0.038212
   2 H :    0.230845    0.038221
   3 H :    0.230846    0.038221
Sum of atomic charges         :   -0.0000000
Sum of atomic spin populations:    1.0000000

-----------------------------------------------------
MULLIKEN REDUCED ORBITAL CHARGES AND SPIN POPULATIONS
-----------------------------------------------------
CHARGE
  0 C s       :     3.320030  s :     3.320030
      pz      :     0.956682  p :     3.319222
      px      :     1.181234
      py      :     1.181305
      dz2     :     0.000166  d :     0.052230
      dxz     :     0.018114
      dyz     :     0.018126
      dx2y2   :     0.007903
      dxy     :     0.007920
      f0      :     0.000344  f :     0.000613
      f+1     :     0.000016
      f-1     :     0.000016
      f+2     :    -0.000070
      f-2     :    -0.000066
      f+3     :     0.000373
      f-3     :     0.000000
  1 H s       :     0.726403  s :     0.726403
      pz      :     0.022475  p :     0.043193
      px      :     0.015982
      py      :     0.004736
  2 H s       :     0.726082  s :     0.726082
      pz      :     0.022406  p :     0.043073
      px      :     0.007532
      py      :     0.013135
  3 H s       :     0.726081  s :     0.726081
      pz      :     0.022406  p :     0.043073
      px      :     0.007532
      py      :     0.013136

SPIN
  0 C s       :     0.026162  s :     0.026162
      pz      :     0.862046  p :     0.870410
      px      :     0.004159
      py      :     0.004205
      dz2     :    -0.000790  d :    -0.010652
      dxz     :    -0.004551
      dyz     :    -0.004546
      dx2y2   :    -0.000388
      dxy     :    -0.000377
      f0      :    -0.000467  f :    -0.000573
      f+1     :     0.000022
      f-1     :     0.000022
      f+2     :    -0.000017
      f-2     :    -0.000015
      f+3     :    -0.000117
      f-3     :    -0.000000
  1 H s       :     0.016313  s :     0.016313
      pz      :     0.019355  p :     0.021899
      px      :    -0.000320
      py      :     0.002864
  2 H s       :     0.016383  s :     0.016383
      pz      :     0.019301  p :     0.021838
      px      :     0.002063
      py      :     0.000475
  3 H s       :     0.016383  s :     0.016383
      pz      :     0.019301  p :     0.021838
      px      :     0.002063
      py      :     0.000475


                     *******************************
                     * LOEWDIN POPULATION ANALYSIS *
                     *******************************

-------------------------------------------
LOEWDIN ATOMIC CHARGES AND SPIN POPULATIONS
-------------------------------------------
   0 C :    0.055433    0.835929
   1 H :   -0.018507    0.054690
   2 H :   -0.018463    0.054690
   3 H :   -0.018463    0.054690

----------------------------------------------------
LOEWDIN REDUCED ORBITAL CHARGES AND SPIN POPULATIONS
----------------------------------------------------
CHARGE
  0 C s       :     2.906213  s :     2.906213
      pz      :     0.766934  p :     2.905820
      px      :     1.069438
      py      :     1.069448
      dz2     :     0.003769  d :     0.121191
      dxz     :     0.029787
      dyz     :     0.029789
      dx2y2   :     0.028922
      dxy     :     0.028923
      f0      :     0.001463  f :     0.011343
      f+1     :     0.000066
      f-1     :     0.000066
      f+2     :     0.003709
      f-2     :     0.003711
      f+3     :     0.002327
      f-3     :     0.000000
  1 H s       :     0.749778  s :     0.749778
      pz      :     0.070941  p :     0.268729
      px      :     0.121240
      py      :     0.076548
  2 H s       :     0.749751  s :     0.749751
      pz      :     0.070927  p :     0.268712
      px      :     0.087713
      py      :     0.110072
  3 H s       :     0.749751  s :     0.749751
      pz      :     0.070927  p :     0.268712
      px      :     0.087713
      py      :     0.110072

SPIN
  0 C s       :     0.114251  s :     0.114251
      pz      :     0.691534  p :     0.731953
      px      :     0.020224
      py      :     0.020196
      dz2     :     0.000961  d :    -0.010099
      dxz     :    -0.003951
      dyz     :    -0.003954
      dx2y2   :    -0.001584
      dxy     :    -0.001571
      f0      :    -0.000195  f :    -0.000176
      f+1     :     0.000055
      f-1     :     0.000055
      f+2     :    -0.000201
      f-2     :    -0.000199
      f+3     :     0.000308
      f-3     :    -0.000000
  1 H s       :    -0.001006  s :    -0.001006
      pz      :     0.053668  p :     0.055696
      px      :     0.002976
      py      :    -0.000948
  2 H s       :    -0.001016  s :    -0.001016
      pz      :     0.053672  p :     0.055706
      px      :     0.000030
      py      :     0.002005
  3 H s       :    -0.001016  s :    -0.001016
      pz      :     0.053672  p :     0.055706
      px      :     0.000030
      py      :     0.002005


                      *****************************
                      * MAYER POPULATION ANALYSIS *
                      *****************************

  NA   - Mulliken gross atomic population
  ZA   - Total nuclear charge
  QA   - Mulliken gross atomic charge
  VA   - Mayer's total valence
  BVA  - Mayer's bonded valence
  FA   - Mayer's free valence

  ATOM       NA         ZA         QA         VA         BVA        FA
  0 C      6.6921     6.0000    -0.6921     3.8263     3.0483     0.7780
  1 H      0.7696     1.0000     0.2304     1.0090     1.0076     0.0014
  2 H      0.7692     1.0000     0.2308     1.0085     1.0071     0.0014
  3 H      0.7692     1.0000     0.2308     1.0085     1.0071     0.0014

  Mayer bond orders larger than 0.100000
B(  0-C ,  1-H ) :   1.0163 B(  0-C ,  2-H ) :   1.0160 B(  0-C ,  3-H ) :   1.0160 


-------
TIMINGS
-------

Total SCF time: 0 days 0 hours 0 min 7 sec 

Total time                  ....       7.602 sec
Sum of individual times     ....       6.958 sec  ( 91.5%)

Fock matrix formation       ....       5.881 sec  ( 77.4%)
  Split-RI-J                ....       0.768 sec  ( 13.1% of F)
  Chain of spheres X        ....       1.321 sec  ( 22.5% of F)
  XC integration            ....       1.215 sec  ( 20.7% of F)
    Basis function eval.    ....       0.054 sec  (  4.5% of XC)
    Density eval.           ....       0.052 sec  (  4.3% of XC)
    XC-Functional eval.     ....       0.058 sec  (  4.8% of XC)
    XC-Potential eval.      ....       0.078 sec  (  6.4% of XC)
Diagonalization             ....       0.157 sec  (  2.1%)
Density matrix formation    ....       0.010 sec  (  0.1%)
Population analysis         ....       0.129 sec  (  1.7%)
Initial guess               ....       0.090 sec  (  1.2%)
Orbital Transformation      ....       0.000 sec  (  0.0%)
Orbital Orthonormalization  ....       0.000 sec  (  0.0%)
DIIS solution               ....       0.323 sec  (  4.3%)
Grid generation             ....       0.368 sec  (  4.8%)

Maximum memory used throughout the entire SCF-calculation: 58.5 MB


-------------------------------------------------------------------------------
                          DFT DISPERSION CORRECTION                            
                                                                               
                              DFTD3 V3.1  Rev 1                                
                              USING zero damping                               
-------------------------------------------------------------------------------
The omegaB97X-D3 functional is recognized. Fit by Chai et al.
Active option DFTDOPT                   ...         3   

molecular C6(AA) [au] = 106.957990 


            DFT-D V3
 parameters
 s6 scaling factor         :     1.0000 
 rs6 scaling factor        :     1.2810 
 s8 scaling factor         :     1.0000 
 rs8 scaling factor        :     1.0940 
 Damping factor alpha6     :    14.0000 
 Damping factor alpha8     :    16.0000 
 ad hoc parameters k1-k3   :    16.0000     1.3333    -4.0000 

 Edisp/kcal,au: -0.004405873595  -0.000007021206 
 E6   /kcal   :  -0.000685172 
 E8   /kcal   :  -0.003720702 
 % E8         :  84.448671276 

-------------------------   ----------------
Dispersion correction           -0.000007021
-------------------------   ----------------


-------------------------   --------------------
FINAL SINGLE POINT ENERGY       -39.808100696403
-------------------------   --------------------



           ************************************************************
           *        Program running with 18 parallel MPI-processes    *
           *              working on a common directory               *
           ************************************************************
------------------------------------------------------------------------------
                         ORCA SCF GRADIENT CALCULATION
------------------------------------------------------------------------------

 ... reading COSX grid (gridx3)
Gradient of the Kohn-Sham DFT energy:
Kohn-Sham wavefunction type      ... UKS
Hartree-Fock exchange scaling    ...    0.196
Number of operators              ...    2
Number of atoms                  ...    4
Basis set dimensions             ...   64
Integral neglect threshold       ... 2.5e-11
Integral primitive cutoff        ... 2.5e-12
SHARK Integral package           ... ON

Nuc. rep. gradient       (SHARK) ... done (  0.0 sec)
HCore & Overlap gradient (SHARK) ... done (  0.0 sec)
RI-J gradient            (SHARK) ... done (  0.1 sec)
COSX-gradient                    ... done (  0.1 sec)
Exchange-correlation gradient    ... done
Dispersion correction            ... done

------------------
CARTESIAN GRADIENT
------------------

WARNING: THERE ARE 3 CONSTRAINED CARTESIAN COORDINATES
   1   C   :   -0.000073365   -0.000000001    0.065249400
   2   H   :   -0.024813190   -0.000000012   -0.021798181
   3   H   :    0.012401160   -0.021444724   -0.021723027
   4   H   :    0.012401169    0.021444704   -0.021723049

Difference to translation invariance:
           :   -0.0000842260   -0.0000000335    0.0000051437

Difference to rotation invariance:
           :    0.0000000029    0.0001459933    0.0000000088

Norm of the cartesian gradient     ...    0.0867147889
RMS gradient                       ...    0.0250324034
MAX gradient                       ...    0.0652493997

-------
TIMINGS
-------

Total SCF gradient time            ...        0.632 sec

One electron gradient       ....       0.006 sec  (  1.0%)
RI-J Coulomb gradient       ....       0.148 sec  ( 23.5%)
COSX gradient               ....       0.113 sec  ( 17.9%)
XC gradient                 ....       0.070 sec  ( 11.0%)

Maximum memory used throughout the entire SCFGRAD-calculation: 33.6 MB
------------------------------------------------------------------------------
                         ORCA GEOMETRY RELAXATION STEP
------------------------------------------------------------------------------

Reading the OPT-File                    .... done
Getting information on internals        .... done
Copying old internal coords+grads       .... done
Making the new internal coordinates     .... (new redundants).... done
Validating the new internal coordinates .... (new redundants).... done
Calculating the B-matrix                .... done
Calculating the G,G- and P matrices     .... done
Transforming gradient to internals      .... done
Projecting the internal gradient        .... done
Number of atoms                         ....   4
Number of internal coordinates          ....   7
Current Energy                          ....   -39.808100696 Eh
Current gradient norm                   ....     0.086714789 Eh/bohr
Maximum allowed component of the step   ....  0.300
Current trust radius                    ....  0.300
Evaluating the initial hessian          ....  (Almloef) done
Projecting the Hessian                  .... done
Forming the augmented Hessian           .... done
Diagonalizing the augmented Hessian     .... done
Last element of RFO vector              ....  0.998520709
Lowest eigenvalues of augmented Hessian:
 -0.001111003  0.373574723  0.373574723  0.374685726 1000.000000000
Length of the computed step             ....  0.054453274
The final length of the internal step   ....  0.054453274
Converting the step to cartesian space:
 Initial RMS(Int)=    0.0205814032
Transforming coordinates:
 Iter   0:  RMS(Cart)=    0.0143797206 RMS(Int)=    0.0205814032
 Iter   1:  RMS(Cart)=    0.0000000000 RMS(Int)=    0.0000000000
Imposing constraints:
 Iter   0:  RMS(Cart)=    0.0000000007 RMS(Int)=    0.0000000010
CONVERGED
done
Storing new coordinates                 .... done

                                .--------------------.
          ----------------------|Geometry convergence|-------------------------
          Item                value                   Tolerance       Converged
          ---------------------------------------------------------------------
          RMS gradient        0.0077115580            0.0001000000      NO
          MAX gradient        0.0117836557            0.0003000000      NO
          RMS step            0.0205814032            0.0020000000      NO
          MAX step            0.0314494385            0.0040000000      NO
          ........................................................
          Max(Bonds)      0.0166      Max(Angles)    0.00
          Max(Dihed)        0.00      Max(Improp)    0.00
          ---------------------------------------------------------------------

The optimization has not yet converged - more geometry cycles are needed


    ---------------------------------------------------------------------------
                         Redundant Internal Coordinates
                            (Angstroem and degrees)

        Definition                    Value    dE/dq     Step     New-Value
    ----------------------------------------------------------------------------
     1. B(H   1,C   0)                1.0800 -0.011771  0.0166    1.0966   
     2. B(H   2,C   0)                1.0800 -0.011784  0.0166    1.0966   
     3. B(H   3,C   0)                1.0800 -0.011784  0.0166    1.0966   
     4. A(H   2,C   0,H   3)          100.00 -0.043532   -0.00    100.00 C 
     5. A(H   1,C   0,H   2)          100.00 -0.019530    0.00    100.00 C 
     6. A(H   1,C   0,H   3)          100.00 -0.019530   -0.00    100.00 C 
     7. I(H   1,H   3,H   2,C   0)     74.33  0.038355    0.00     74.33   
    ----------------------------------------------------------------------------

         *************************************************************
         *                GEOMETRY OPTIMIZATION CYCLE   2            *
         *************************************************************
---------------------------------
CARTESIAN COORDINATES (ANGSTROEM)
---------------------------------
  C      0.000005   -0.000000    0.005820
  H      0.970025   -0.000000   -0.505695
  H     -0.485015    0.840077   -0.505698
  H     -0.485015   -0.840077   -0.505698

----------------------------
CARTESIAN COORDINATES (A.U.)
----------------------------
  NO LB      ZA    FRAG     MASS         X           Y           Z
   0 C     6.0000    0    12.011    0.000010   -0.000000    0.010998
   1 H     1.0000    0     1.008    1.833082   -0.000000   -0.955626
   2 H     1.0000    0     1.008   -0.916546    1.587515   -0.955631
   3 H     1.0000    0     1.008   -0.916546   -1.587515   -0.955631

--------------------------------
INTERNAL COORDINATES (ANGSTROEM)
--------------------------------
 C      0   0   0     0.000000000000     0.00000000     0.00000000
 H      1   0   0     1.096625139458     0.00000000     0.00000000
 H      1   2   0     1.096642326092    99.99999996     0.00000000
 H      1   2   3     1.096642320365    99.99999996   102.13045772

---------------------------
INTERNAL COORDINATES (A.U.)
---------------------------
 C      0   0   0     0.000000000000     0.00000000     0.00000000
 H      1   0   0     2.072321185150     0.00000000     0.00000000
 H      1   2   0     2.072353663180    99.99999996     0.00000000
 H      1   2   3     2.072353652359    99.99999996   102.13045772



           ************************************************************
           *        Program running with 18 parallel MPI-processes    *
           *              working on a common directory               *
           ************************************************************
------------------------------------------------------------------------------
                   ___                                                        
                  /   \      - P O W E R E D   B Y -                         
                 /     \                                                     
                 |  |  |   _    _      __       _____    __    __             
                 |  |  |  | |  | |    /  \     |  _  \  |  |  /  |          
                  \  \/   | |  | |   /    \    | | | |  |  | /  /          
                 / \  \   | |__| |  /  /\  \   | |_| |  |  |/  /          
                |  |  |   |  __  | /  /__\  \  |    /   |      \           
                |  |  |   | |  | | |   __   |  |    \   |  |\   \          
                \     /   | |  | | |  |  |  |  | |\  \  |  | \   \       
                 \___/    |_|  |_| |__|  |__|  |_| \__\ |__|  \__/        
                                                                              
                      - O R C A' S   B I G   F R I E N D -                    
                                      &                                       
                       - I N T E G R A L  F E E D E R -                       
                                                                              
 v1 FN, 2020, v2 2021                                                         
------------------------------------------------------------------------------


Reading SHARK input file /beegfs/scratch/ispackman/PFAS_EPR_calcs/benchmark/JChemEd_CF3_radical/CH3_radical_100.0_degrees_IN-PROGRESS/CH3_radical_100.0_degrees.SHARKINP.tmp ... ok
----------------------
SHARK INTEGRAL PACKAGE
----------------------

Number of atoms                             ...      4
Number of basis functions                   ...     64
Number of shells                            ...     28
Maximum angular momentum                    ...      3
Integral batch strategy                     ... SHARK/LIBINT Hybrid
RI-J (if used) integral strategy            ... SPLIT-RIJ (Revised 2003 algorithm where possible)
Printlevel                                  ...      1
Contraction scheme used                     ... SEGMENTED contraction
Coulomb Range Separation                    ... NOT USED
Exchange Range Separation                   ... Long Range
   Mu parameter                             ...  0.250000
   Scaling (regular/separated)              ...  0.195728  0.804272
Finite Nucleus Model                        ... NOT USED
Auxiliary Coulomb fitting basis             ... AVAILABLE
   # of basis functions in Aux-J            ...     82
   # of shells in Aux-J                     ...     30
   Maximum angular momentum in Aux-J        ...      4
Auxiliary J/K fitting basis                 ... NOT available
Auxiliary Correlation fitting basis         ... NOT available
Auxiliary 'external' fitting basis          ... NOT available
Integral threshold                          ...     2.500000e-11
Primitive cut-off                           ...     2.500000e-12
Primitive pair pre-selection threshold      ...     2.500000e-12

Calculating pre-screening integrals         ... done (  0.0 sec) Dimension = 28
Organizing shell pair data                  ... done (  0.0 sec)
Shell pair information
Total number of shell pairs                 ...       406
Shell pairs after pre-screening             ...       406
Total number of primitive shell pairs       ...       977
Primitive shell pairs kept                  ...       947
          la=0 lb=0:    120 shell pairs
          la=1 lb=0:    135 shell pairs
          la=1 lb=1:     45 shell pairs
          la=2 lb=0:     45 shell pairs
          la=2 lb=1:     27 shell pairs
          la=2 lb=2:      6 shell pairs
          la=3 lb=0:     15 shell pairs
          la=3 lb=1:      9 shell pairs
          la=3 lb=2:      3 shell pairs
          la=3 lb=3:      1 shell pairs

Calculating one electron integrals          ... done (  0.0 sec)
Calculating RI/J V-Matrix + Cholesky decomp.... done (  0.1 sec)
Calculating Nuclear repulsion               ... done (  0.0 sec) ENN=      9.630699425121 Eh

SHARK setup successfully completed in   0.3 seconds

Maximum memory used throughout the entire GTOINT-calculation: 14.0 MB


           ************************************************************
           *        Program running with 18 parallel MPI-processes    *
           *              working on a common directory               *
           ************************************************************

Diagonalization of the overlap matrix:
Smallest eigenvalue                        ... 4.435e-05
Time for diagonalization                   ...    0.002 sec
Threshold for overlap eigenvalues          ... 1.000e-08
Number of eigenvalues below threshold      ... 0
Time for construction of square roots      ...    0.017 sec
Total time needed                          ...    0.020 sec

-------------------
DFT GRID GENERATION
-------------------

General Integration Accuracy     IntAcc      ... 4.388
Radial Grid Type                 RadialGrid  ... OptM3 with GC (2021)
Angular Grid (max. ang.)         AngularGrid ... 4 (Lebedev-302)
Angular grid pruning method      GridPruning ... 4 (adaptive)
Weight generation scheme         WeightScheme... Becke
Basis function cutoff            BFCut       ... 1.0000e-11
Integration weight cutoff        WCut        ... 1.0000e-14
Angular grids for H and He will be reduced by one unit
Partially contracted basis set               ... off
Rotationally invariant grid construction     ... off

Total number of grid points                  ...    17045
Total number of batches                      ...      269
Average number of points per batch           ...       63
Average number of grid points per atom       ...     4261
Time for grid setup =    0.097 sec

--------------------
COSX GRID GENERATION
--------------------

GRIDX 1
-------
General Integration Accuracy     IntAcc      ... 3.816
Radial Grid Type                 RadialGrid  ... OptM3 with GC (2021)
Angular Grid (max. ang.)         AngularGrid ... 1 (Lebedev-50)
Angular grid pruning method      GridPruning ... 4 (adaptive)
Weight generation scheme         WeightScheme... Becke
Basis function cutoff            BFCut       ... 1.0000e-11
Integration weight cutoff        WCut        ... 1.0000e-14
Angular grids for H and He will be reduced by one unit
Partially contracted basis set               ... on
Rotationally invariant grid construction     ... off

Total number of grid points                  ...     2147
Total number of batches                      ...       36
Average number of points per batch           ...       59
Average number of grid points per atom       ...      537
UseSFitting                                  ... on

GRIDX 2
-------
General Integration Accuracy     IntAcc      ... 4.020
Radial Grid Type                 RadialGrid  ... OptM3 with GC (2021)
Angular Grid (max. ang.)         AngularGrid ... 2 (Lebedev-110)
Angular grid pruning method      GridPruning ... 4 (adaptive)
Weight generation scheme         WeightScheme... Becke
Basis function cutoff            BFCut       ... 1.0000e-11
Integration weight cutoff        WCut        ... 1.0000e-14
Angular grids for H and He will be reduced by one unit
Partially contracted basis set               ... on
Rotationally invariant grid construction     ... off

Total number of grid points                  ...     5044
Total number of batches                      ...       80
Average number of points per batch           ...       63
Average number of grid points per atom       ...     1261
UseSFitting                                  ... on

GRIDX 3
-------
General Integration Accuracy     IntAcc      ... 4.338
Radial Grid Type                 RadialGrid  ... OptM3 with GC (2021)
Angular Grid (max. ang.)         AngularGrid ... 3 (Lebedev-194)
Angular grid pruning method      GridPruning ... 4 (adaptive)
Weight generation scheme         WeightScheme... Becke
Basis function cutoff            BFCut       ... 1.0000e-11
Integration weight cutoff        WCut        ... 1.0000e-14
Angular grids for H and He will be reduced by one unit
Partially contracted basis set               ... on
Rotationally invariant grid construction     ... off

Total number of grid points                  ...    11715
Total number of batches                      ...      185
Average number of points per batch           ...       63
Average number of grid points per atom       ...     2929
UseSFitting                                  ... on

Time for X-Grid setup             =    0.278 sec

--------------
SCF ITERATIONS
--------------
ITER       Energy         Delta-E        Max-DP      RMS-DP      [F,P]     Damp
               ***  Starting incremental Fock matrix formation  ***
  0    -39.8084982345   0.000000000000 0.01309874  0.00021831  0.0042132 0.7000
  1    -39.8085497185  -0.000051483983 0.01146244  0.00019114  0.0030875 0.7000
                               ***Turning on DIIS***
  2    -39.8085841619  -0.000034443403 0.02962015  0.00049403  0.0022479 0.0000
  3    -39.8086598043  -0.000075642402 0.00577678  0.00009931  0.0006817 0.0000
               *** Restarting incremental Fock matrix formation ***
                                   *** Resetting DIIS ***
  4    -39.8086633669  -0.000003562625 0.00058612  0.00001791  0.0003348 0.0000
  5    -39.8086639534  -0.000000586441 0.00045548  0.00000887  0.0001981 0.0000
  6    -39.8086641990  -0.000000245608 0.00013672  0.00000418  0.0000421 0.0000
  7    -39.8086642194  -0.000000020384 0.00005720  0.00000132  0.0000103 0.0000
                 **** Energy Check signals convergence ****

               *****************************************************
               *                     SUCCESS                       *
               *           SCF CONVERGED AFTER   8 CYCLES          *
               *****************************************************

Old exchange energy                            =     -2.168901688 Eh
New exchange energy                            =     -2.168904814 Eh
Exchange energy change after final integration =     -0.000003126 Eh
Total energy after final integration           =    -39.808667347 Eh
Final COS-X integration done in                =     0.122 sec
Total Energy       :          -39.80866735 Eh           -1083.24891 eV
  Last Energy change         ...   -1.1380e-09  Tolerance :   1.0000e-08
  Last MAX-Density change    ...    0.0000e+00  Tolerance :   1.0000e-07
             **** THE GBW FILE WAS UPDATED (/beegfs/scratch/ispackman/PFAS_EPR_calcs/benchmark/JChemEd_CF3_radical/CH3_radical_100.0_degrees_IN-PROGRESS/CH3_radical_100.0_degrees.gbw) ****
             **** DENSITY /beegfs/scratch/ispackman/PFAS_EPR_calcs/benchmark/JChemEd_CF3_radical/CH3_radical_100.0_degrees_IN-PROGRESS/CH3_radical_100.0_degrees.scfp WAS UPDATED ****
             **** ENERGY FILE WAS UPDATED (/beegfs/scratch/ispackman/PFAS_EPR_calcs/benchmark/JChemEd_CF3_radical/CH3_radical_100.0_degrees_IN-PROGRESS/CH3_radical_100.0_degrees.en.tmp) ****
----------------------
UHF SPIN CONTAMINATION
----------------------

Warning: in a DFT calculation there is little theoretical justification to 
         calculate <S**2> as in Hartree-Fock theory. We will do it anyways
         but you should keep in mind that the values have only limited relevance

Expectation value of <S**2>     :     0.753130
Ideal value S*(S+1) for S=0.5   :     0.750000
Deviation                       :     0.003130

             **** THE GBW FILE WAS UPDATED (/beegfs/scratch/ispackman/PFAS_EPR_calcs/benchmark/JChemEd_CF3_radical/CH3_radical_100.0_degrees_IN-PROGRESS/CH3_radical_100.0_degrees.gbw) ****
             **** DENSITY /beegfs/scratch/ispackman/PFAS_EPR_calcs/benchmark/JChemEd_CF3_radical/CH3_radical_100.0_degrees_IN-PROGRESS/CH3_radical_100.0_degrees.scfp WAS UPDATED ****
Total SCF time: 0 days 0 hours 0 min 5 sec 

Maximum memory used throughout the entire SCF-calculation: 58.5 MB


-------------------------------------------------------------------------------
                          DFT DISPERSION CORRECTION                            
                                                                               
                              DFTD3 V3.1  Rev 1                                
                              USING zero damping                               
-------------------------------------------------------------------------------
-------------------------   ----------------
Dispersion correction           -0.000007937
-------------------------   ----------------


-------------------------   --------------------
FINAL SINGLE POINT ENERGY       -39.808675283293
-------------------------   --------------------



           ************************************************************
           *        Program running with 18 parallel MPI-processes    *
           *              working on a common directory               *
           ************************************************************
------------------------------------------------------------------------------
                         ORCA SCF GRADIENT CALCULATION
------------------------------------------------------------------------------

 ... reading COSX grid (gridx3)
Gradient of the Kohn-Sham DFT energy:
Kohn-Sham wavefunction type      ... UKS
Hartree-Fock exchange scaling    ...    0.196
Number of operators              ...    2
Number of atoms                  ...    4
Basis set dimensions             ...   64
Integral neglect threshold       ... 2.5e-11
Integral primitive cutoff        ... 2.5e-12
SHARK Integral package           ... ON

Nuc. rep. gradient       (SHARK) ... done (  0.0 sec)
HCore & Overlap gradient (SHARK) ... done (  0.0 sec)
RI-J gradient            (SHARK) ... done (  0.1 sec)
COSX-gradient                    ... done (  0.1 sec)
Exchange-correlation gradient    ... done
Dispersion correction            ... done

------------------
CARTESIAN GRADIENT
------------------

WARNING: THERE ARE 3 CONSTRAINED CARTESIAN COORDINATES
   1   C   :   -0.000078231   -0.000000032    0.078046935
   2   H   :   -0.014383835   -0.000000015   -0.026059838
   3   H   :    0.007187456   -0.012413615   -0.025993787
   4   H   :    0.007187440    0.012413626   -0.025993783

Difference to translation invariance:
           :   -0.0000871699   -0.0000000365   -0.0000004731

Difference to rotation invariance:
           :   -0.0000000097    0.0001276660   -0.0000000630

Norm of the cartesian gradient     ...    0.0934890821
RMS gradient                       ...    0.0269879734
MAX gradient                       ...    0.0780469347

-------
TIMINGS
-------

Total SCF gradient time            ...        0.639 sec

One electron gradient       ....       0.006 sec  (  1.0%)
RI-J Coulomb gradient       ....       0.135 sec  ( 21.2%)
COSX gradient               ....       0.124 sec  ( 19.4%)
XC gradient                 ....       0.059 sec  (  9.3%)

Maximum memory used throughout the entire SCFGRAD-calculation: 33.6 MB
------------------------------------------------------------------------------
                         ORCA GEOMETRY RELAXATION STEP
------------------------------------------------------------------------------

Reading the OPT-File                    .... done
Getting information on internals        .... done
Copying old internal coords+grads       .... done
Making the new internal coordinates     .... (new redundants).... done
Validating the new internal coordinates .... (new redundants).... done
Calculating the B-matrix                .... done
Calculating the G,G- and P matrices     .... done
Transforming gradient to internals      .... done
Projecting the internal gradient        .... done
Number of atoms                         ....   4
Number of internal coordinates          ....   7
Current Energy                          ....   -39.808675283 Eh
Current gradient norm                   ....     0.093489082 Eh/bohr
Maximum allowed component of the step   ....  0.300
Current trust radius                    ....  0.300
Updating the Hessian (BFGS)             .... done
Forming the augmented Hessian           .... done
Diagonalizing the augmented Hessian     .... done
Last element of RFO vector              ....  0.999996235
Lowest eigenvalues of augmented Hessian:
 -0.000002686  0.356711361  0.373574723  0.373577197 999.999999994
Length of the computed step             ....  0.002744070
The final length of the internal step   ....  0.002744070
Converting the step to cartesian space:
 Initial RMS(Int)=    0.0010371610
Transforming coordinates:
 Iter   0:  RMS(Cart)=    0.0007246250 RMS(Int)=    0.0010371610
 Iter   1:  RMS(Cart)=    0.0000000000 RMS(Int)=    0.0000000000
Imposing constraints:
 Iter   0:  RMS(Cart)=    0.0000000002 RMS(Int)=    0.0000000006
CONVERGED
done
Storing new coordinates                 .... done

                                .--------------------.
          ----------------------|Geometry convergence|-------------------------
          Item                value                   Tolerance       Converged
          ---------------------------------------------------------------------
          Energy change      -0.0005745869            0.0000050000      NO
          RMS gradient        0.0003699671            0.0001000000      NO
          MAX gradient        0.0005697381            0.0003000000      NO
          RMS step            0.0010371610            0.0020000000      YES
          MAX step            0.0015972327            0.0040000000      YES
          ........................................................
          Max(Bonds)      0.0008      Max(Angles)    0.00
          Max(Dihed)        0.00      Max(Improp)    0.00
          ---------------------------------------------------------------------

The optimization has not yet converged - more geometry cycles are needed


    ---------------------------------------------------------------------------
                         Redundant Internal Coordinates
                            (Angstroem and degrees)

        Definition                    Value    dE/dq     Step     New-Value
    ----------------------------------------------------------------------------
     1. B(H   1,C   0)                1.0966 -0.000556  0.0008    1.0974   
     2. B(H   2,C   0)                1.0966 -0.000570  0.0008    1.0975   
     3. B(H   3,C   0)                1.0966 -0.000570  0.0008    1.0975   
     4. A(H   2,C   0,H   3)          100.00 -0.042634   -0.00    100.00 C 
     5. A(H   1,C   0,H   2)          100.00 -0.019129   -0.00    100.00 C 
     6. A(H   1,C   0,H   3)          100.00 -0.019129   -0.00    100.00 C 
     7. I(H   1,H   3,H   2,C   0)     74.33  0.037568    0.00     74.33   
    ----------------------------------------------------------------------------

         *************************************************************
         *                GEOMETRY OPTIMIZATION CYCLE   3            *
         *************************************************************
---------------------------------
CARTESIAN COORDINATES (ANGSTROEM)
---------------------------------
  C      0.000011    0.000000    0.006113
  H      0.970759    0.000000   -0.505791
  H     -0.485385    0.840724   -0.505797
  H     -0.485385   -0.840724   -0.505797

----------------------------
CARTESIAN COORDINATES (A.U.)
----------------------------
  NO LB      ZA    FRAG     MASS         X           Y           Z
   0 C     6.0000    0    12.011    0.000022    0.000000    0.011552
   1 H     1.0000    0     1.008    1.834468    0.000000   -0.955806
   2 H     1.0000    0     1.008   -0.917245    1.588739   -0.955817
   3 H     1.0000    0     1.008   -0.917245   -1.588739   -0.955817

--------------------------------
INTERNAL COORDINATES (ANGSTROEM)
--------------------------------
 C      0   0   0     0.000000000000     0.00000000     0.00000000
 H      1   0   0     1.097449670922     0.00000000     0.00000000
 H      1   2   0     1.097487515409    99.99999993     0.00000000
 H      1   2   3     1.097487539513    99.99999993   102.13045770

---------------------------
INTERNAL COORDINATES (A.U.)
---------------------------
 C      0   0   0     0.000000000000     0.00000000     0.00000000
 H      1   0   0     2.073879323804     0.00000000     0.00000000
 H      1   2   0     2.073950839521    99.99999993     0.00000000
 H      1   2   3     2.073950885070    99.99999993   102.13045770



           ************************************************************
           *        Program running with 18 parallel MPI-processes    *
           *              working on a common directory               *
           ************************************************************
------------------------------------------------------------------------------
                   ___                                                        
                  /   \      - P O W E R E D   B Y -                         
                 /     \                                                     
                 |  |  |   _    _      __       _____    __    __             
                 |  |  |  | |  | |    /  \     |  _  \  |  |  /  |          
                  \  \/   | |  | |   /    \    | | | |  |  | /  /          
                 / \  \   | |__| |  /  /\  \   | |_| |  |  |/  /          
                |  |  |   |  __  | /  /__\  \  |    /   |      \           
                |  |  |   | |  | | |   __   |  |    \   |  |\   \          
                \     /   | |  | | |  |  |  |  | |\  \  |  | \   \       
[...]
  ZA   - Total nuclear charge
  QA   - Mulliken gross atomic charge
  VA   - Mayer's total valence
  BVA  - Mayer's bonded valence
  FA   - Mayer's free valence

  ATOM       NA         ZA         QA         VA         BVA        FA
  0 C      6.6670     6.0000    -0.6670     3.8347     3.0448     0.7899
  1 H      0.7780     1.0000     0.2220     1.0151     1.0139     0.0012
  2 H      0.7775     1.0000     0.2225     1.0145     1.0133     0.0012
  3 H      0.7775     1.0000     0.2225     1.0145     1.0133     0.0012

  Mayer bond orders larger than 0.100000
B(  0-C ,  1-H ) :   1.0153 B(  0-C ,  2-H ) :   1.0148 B(  0-C ,  3-H ) :   1.0148 


-------
TIMINGS
-------

Total SCF time: 0 days 0 hours 0 min 4 sec 

Total time                  ....       4.271 sec
Sum of individual times     ....       3.753 sec  ( 87.9%)

Fock matrix formation       ....       2.992 sec  ( 70.1%)
  Split-RI-J                ....       0.490 sec  ( 16.4% of F)
  Chain of spheres X        ....       0.769 sec  ( 25.7% of F)
  XC integration            ....       0.608 sec  ( 20.3% of F)
    Basis function eval.    ....       0.024 sec  (  4.0% of XC)
    Density eval.           ....       0.023 sec  (  3.8% of XC)
    XC-Functional eval.     ....       0.025 sec  (  4.1% of XC)
    XC-Potential eval.      ....       0.027 sec  (  4.5% of XC)
Diagonalization             ....       0.098 sec  (  2.3%)
Density matrix formation    ....       0.005 sec  (  0.1%)
Population analysis         ....       0.207 sec  (  4.8%)
Initial guess               ....       0.005 sec  (  0.1%)
Orbital Transformation      ....       0.000 sec  (  0.0%)
Orbital Orthonormalization  ....       0.002 sec  (  0.0%)
DIIS solution               ....       0.107 sec  (  2.5%)
Grid generation             ....       0.338 sec  (  7.9%)

Maximum memory used throughout the entire SCF-calculation: 58.5 MB


-------------------------------------------------------------------------------
                          DFT DISPERSION CORRECTION                            
                                                                               
                              DFTD3 V3.1  Rev 1                                
                              USING zero damping                               
-------------------------------------------------------------------------------
The omegaB97X-D3 functional is recognized. Fit by Chai et al.
Active option DFTDOPT                   ...         3   

molecular C6(AA) [au] = 107.002880 


            DFT-D V3
 parameters
 s6 scaling factor         :     1.0000 
 rs6 scaling factor        :     1.2810 
 s8 scaling factor         :     1.0000 
 rs8 scaling factor        :     1.0940 
 Damping factor alpha6     :    14.0000 
 Damping factor alpha8     :    16.0000 
 ad hoc parameters k1-k3   :    16.0000     1.3333    -4.0000 

 Edisp/kcal,au: -0.005012371673  -0.000007987722 
 E6   /kcal   :  -0.000779562 
 E8   /kcal   :  -0.004232810 
 % E8         :  84.447246033 

-------------------------   ----------------
Dispersion correction           -0.000007988
-------------------------   ----------------


-------------------------   --------------------
FINAL SINGLE POINT ENERGY       -39.808676719386
-------------------------   --------------------

                                *** OPTIMIZATION RUN DONE ***

                            ***************************************
                            *     ORCA property calculations      *
                            ***************************************

                                    ---------------------
                                    Active property flags
                                    ---------------------
   (+) Dipole Moment


------------------------------------------------------------------------------
                       ORCA ELECTRIC PROPERTIES CALCULATION
------------------------------------------------------------------------------

Dipole Moment Calculation                       ... on
Quadrupole Moment Calculation                   ... off
Polarizability Calculation                      ... off
GBWName                                         ... /beegfs/scratch/ispackman/PFAS_EPR_calcs/benchmark/JChemEd_CF3_radical/CH3_radical_100.0_degrees_IN-PROGRESS/CH3_radical_100.0_degrees.gbw
Electron density                                ... /beegfs/scratch/ispackman/PFAS_EPR_calcs/benchmark/JChemEd_CF3_radical/CH3_radical_100.0_degrees_IN-PROGRESS/CH3_radical_100.0_degrees.scfp
The origin for moment calculation is the CENTER OF MASS  = ( 0.000017, -0.000000 -0.182995)

-------------
DIPOLE MOMENT
-------------
                                X             Y             Z
Electronic contribution:      0.00001       0.00000       0.84921
Nuclear contribution   :     -0.00004       0.00000      -1.15104
                        -----------------------------------------
Total Dipole Moment    :     -0.00003       0.00000      -0.30183
                        -----------------------------------------
Magnitude (a.u.)       :      0.30183
Magnitude (Debye)      :      0.76718



--------------------
Rotational spectrum 
--------------------
 
Rotational constants in cm-1:     8.190930     8.190654     5.914886 
Rotational constants in MHz : 245557.907478 245549.636951 177323.834535 

 Dipole components along the rotational axes: 
x,y,z [a.u.] :     0.000000     0.000040    -0.301827 
x,y,z [Debye]:     0.000000     0.000101    -0.767182 

 


           ************************************************************
           *        Program running with 18 parallel MPI-processes    *
           *              working on a common directory               *
           ************************************************************

-------------------------------------------------------------------------------
                               ORCA SCF HESSIAN
-------------------------------------------------------------------------------

                   --------- SHARK INITIALIZATION DONE ---------

Hessian of the Kohn-Sham DFT energy:
Kohn-Sham wavefunction type                      ... UKS
Hartree-Fock exchange scaling                    ...    0.196
Number of operators                              ...    2
Number of atoms                                  ...    4
Basis set dimensions                             ...   64
Integral neglect threshold                       ... 2.5e-11
Integral primitive cutoff                        ... 2.5e-12

Setting up DFT Hessian calculations              ... 

HESS GRID
---------

General Integration Accuracy     IntAcc      ... 4.629
Radial Grid Type                 RadialGrid  ... OptM3 with GC (2021)
Angular Grid (max. ang.)         AngularGrid ... 5 (Lebedev-434)
Angular grid pruning method      GridPruning ... 4 (adaptive)
Weight generation scheme         WeightScheme... Becke
Basis function cutoff            BFCut       ... 1.0000e-11
Integration weight cutoff        WCut        ... 1.0000e-14
Angular grids for H and He will be reduced by one unit
Partially contracted basis set               ... off
Rotationally invariant grid construction     ... off

Total number of grid points                  ...    27252
Total number of batches                      ...      428
Average number of points per batch           ...       63
Average number of grid points per atom       ...     6813

Building densities                               ... done   (      0.0 sec)
Calculating rho(r) on the grid                   ... done   (      0.1 sec)
Building xc-kernel on the grid                   ... done   (      0.1 sec)
                                                     done   (      0.4 sec)

Nuclear repulsion Hessian  (SHARK)               ... done   (      0.0 sec)

----------------------------------------------
Forming right-hand sides of CP-SCF equations     ...
----------------------------------------------
One electron integral derivatives  (SHARK)       ... done   (      0.0 sec)
Transforming the overlap derivative matrices     ... done   (      0.0 sec)
Making the Q(x) pseudodensities                  ... done   (      0.0 sec)
Adding the E*S(x)*S(y) terms to the Hessian      ... done   (      0.0 sec)
Calculating energy weighted overlap derivatives  ... done   (      0.0 sec)
Two electron integral derivatives (SHARK-RI)     ... done   (      0.5 sec)
Exchange-correlation integral derivatives        ... done   (      0.4 sec)
tr(F(y)Q(x)) contribution to the Hessian         ... done   (      0.0 sec)
Response fock operator R(S(x)) (SHARK-RIJCOSX)   ... done   (      0.5 sec)
XC Response fock operator R(S(x))                ... done   (      0.1 sec)
tr(F(y)S(x)) contribution to the Hessian         ... done   (      0.0 sec)
Transforming and finalizing RHSs                 ... done   (      0.0 sec)

----------------------------------------------
Solving the CP-SCF equations (RIJCOSX)           ...
----------------------------------------------
     CP-SCF ITERATION   0:   1.2451e-01 (   0.3 sec   0/ 12 done)
     CP-SCF ITERATION   1:   3.0185e-02 (   0.3 sec   0/ 12 done)
     CP-SCF ITERATION   2:   1.0650e-02 (   0.3 sec   0/ 12 done)
     CP-SCF ITERATION   3:   3.6336e-03 (   0.3 sec   0/ 12 done)
     CP-SCF ITERATION   4:   5.8780e-04 (   0.3 sec   1/ 12 done)
     CP-SCF ITERATION   5:   1.3444e-04 (   0.3 sec  10/ 12 done)
     CP-SCF ITERATION   6:   2.9052e-05 (   0.3 sec  12/ 12 done)
                    *** THE CP-SCF HAS CONVERGED ***

                                                 ... done   (      2.2 sec)
Forming perturbed density Hessian contributions  ... done   (      0.0 sec)
2nd integral derivative contribs (SHARK-RI)      ... done   (      0.7 sec)
Exchange-correlation Hessian                     ... done   (      0.3 sec)
Dispersion correction in the Hessian             ... done   (      0.1 sec)
Dipole derivatives                               ... (center of mass:  0.000017, -0.000000 -0.182995)done   (      0.1 sec)

Total SCF Hessian time: 0 days 0 hours 0 min 6 sec 

Writing the Hessian file to the disk             ... done


Maximum memory used throughout the entire SCFHESS-calculation: 109.8 MB

-----------------------
VIBRATIONAL FREQUENCIES
-----------------------

Scaling factor for frequencies =  1.000000000  (already applied!)

   0:         0.00 cm**-1
   1:         0.00 cm**-1
   2:         0.00 cm**-1
   3:         0.00 cm**-1
   4:         0.00 cm**-1
   5:         0.00 cm**-1
   6:      1319.47 cm**-1
   7:      1393.84 cm**-1
   8:      1395.85 cm**-1
   9:      3047.59 cm**-1
  10:      3087.44 cm**-1
  11:      3087.65 cm**-1


------------
NORMAL MODES
------------

These modes are the Cartesian displacements weighted by the diagonal matrix
M(i,i)=1/sqrt(m[i]) where m[i] is the mass of the displaced atom
Thus, these vectors are normalized but *not* orthogonal

                  0          1          2          3          4          5    
      0       0.000000   0.000000   0.000000   0.000000   0.000000   0.000000
      1       0.000000   0.000000   0.000000   0.000000   0.000000   0.000000
      2       0.000000   0.000000   0.000000   0.000000   0.000000   0.000000
      3       0.000000   0.000000   0.000000   0.000000   0.000000   0.000000
      4       0.000000   0.000000   0.000000   0.000000   0.000000   0.000000
      5       0.000000   0.000000   0.000000   0.000000   0.000000   0.000000
      6       0.000000   0.000000   0.000000   0.000000   0.000000   0.000000
      7       0.000000   0.000000   0.000000   0.000000   0.000000   0.000000
      8       0.000000   0.000000   0.000000   0.000000   0.000000   0.000000
      9       0.000000   0.000000   0.000000   0.000000   0.000000   0.000000
     10       0.000000   0.000000   0.000000   0.000000   0.000000   0.000000
     11       0.000000   0.000000   0.000000   0.000000   0.000000   0.000000
                  6          7          8          9         10         11    
      0      -0.000525   0.000001  -0.071708  -0.000366  -0.085827   0.000034
      1       0.000000  -0.071735  -0.000001  -0.000000   0.000034   0.085806
      2       0.128785   0.000000  -0.000856   0.054095  -0.000233   0.000000
      3      -0.258478   0.000001  -0.166653   0.538070   0.725829  -0.000286
      4      -0.000003   0.738024   0.000009  -0.000000   0.000019   0.046654
      5      -0.513738   0.000002  -0.296982  -0.216395  -0.358600   0.000142
      6       0.132368   0.392371   0.510554  -0.266857   0.148562   0.335498
      7      -0.219769   0.058370   0.393945   0.461864  -0.337743  -0.534410
      8      -0.510409  -0.260234   0.153589  -0.214091   0.180810   0.311204
      9       0.132370  -0.392383   0.510544  -0.266855   0.148296  -0.335617
     10       0.219768   0.058382  -0.393944  -0.461861   0.337319  -0.534681
     11      -0.510411   0.260227   0.153596  -0.214089   0.180563  -0.311349


-----------
IR SPECTRUM
-----------

 Mode   freq       eps      Int      T**2         TX        TY        TZ
       cm**-1   L/(mol*cm) km/mol    a.u.
----------------------------------------------------------------------------
  6:   1319.47   0.001613    8.15  0.000381  ( 0.000113 -0.000000 -0.019528)
  7:   1393.84   0.000931    4.71  0.000209  (-0.000000  0.014441 -0.000000)
  8:   1395.85   0.000949    4.80  0.000212  ( 0.014566  0.000000  0.000205)
  9:   3047.59   0.000016    0.08  0.000002  (-0.000155 -0.000000  0.001260)
 10:   3087.44   0.007217   36.47  0.000729  (-0.027009  0.000011 -0.000057)
 11:   3087.65   0.007386   37.32  0.000746  ( 0.000011  0.027321  0.000000)

* The epsilon (eps) is given for a Dirac delta lineshape.
** The dipole moment derivative (T) already includes vibrational overlap.

The first frequency considered to be a vibration is 6
The total number of vibrations considered is 6


--------------------------
THERMOCHEMISTRY AT 298.15K
--------------------------

Temperature         ... 298.15 K
Pressure            ... 1.00 atm
Total Mass          ... 15.03 AMU

Throughout the following assumptions are being made:
  (1) The electronic state is orbitally nondegenerate
      but the spin degeneracy is treated
  (2) There are no thermally accessible electronically excited states
  (3) Hindered rotations indicated by low frequency modes are not
      treated as such but are treated as vibrations and this may
      cause some error
  (4) All equations used are the standard statistical mechanics
      equations for an ideal gas
  (5) All vibrations are strictly harmonic

freq.    1319.47  E(vib)   ...       0.01 
freq.    1393.84  E(vib)   ...       0.00 
freq.    1395.85  E(vib)   ...       0.00 
freq.    3047.59  E(vib)   ...       0.00 
freq.    3087.44  E(vib)   ...       0.00 
freq.    3087.65  E(vib)   ...       0.00 

------------
INNER ENERGY
------------

The inner energy is: U= E(el) + E(ZPE) + E(vib) + E(rot) + E(trans)
    E(el)   - is the total energy from the electronic structure calculation
              = E(kin-el) + E(nuc-el) + E(el-el) + E(nuc-nuc)
    E(ZPE)  - the the zero temperature vibrational energy from the frequency calculation
    E(vib)  - the the finite temperature correction to E(ZPE) due to population
              of excited vibrational states
    E(rot)  - is the rotational thermal energy
    E(trans)- is the translational thermal energy

Summary of contributions to the inner energy U:
Electronic energy                ...    -39.80867672 Eh
Zero point energy                ...      0.03037216 Eh      19.06 kcal/mol
Thermal vibrational correction   ...      0.00002554 Eh       0.02 kcal/mol
Thermal rotational correction    ...      0.00141627 Eh       0.89 kcal/mol
Thermal translational correction ...      0.00141627 Eh       0.89 kcal/mol
-----------------------------------------------------------------------
Total thermal energy                    -39.77544647 Eh


Summary of corrections to the electronic energy:
(perhaps to be used in another calculation)
Total thermal correction                  0.00285809 Eh       1.79 kcal/mol
Non-thermal (ZPE) correction              0.03037216 Eh      19.06 kcal/mol
-----------------------------------------------------------------------
Total correction                          0.03323025 Eh      20.85 kcal/mol


--------
ENTHALPY
--------

The enthalpy is H = U + kB*T
                kB is Boltzmann's constant
Total free energy                 ...    -39.77544647 Eh 
Thermal Enthalpy correction       ...      0.00094421 Eh       0.59 kcal/mol
-----------------------------------------------------------------------
Total Enthalpy                    ...    -39.77450226 Eh


Note: Rotational entropy computed according to Herzberg 
Infrared and Raman Spectra, Chapter V,1, Van Nostrand Reinhold, 1945 
Point Group:  C3v, Symmetry Number:   3  
Rotational constants in cm-1:     8.190930     8.190654     5.914886 

Vibrational entropy computed according to the QRRHO of S. Grimme
Chem.Eur.J. 2012 18 9955


-------
ENTROPY
-------

The entropy contributions are T*S = T*(S(el)+S(vib)+S(rot)+S(trans))
     S(el)   - electronic entropy
     S(vib)  - vibrational entropy
     S(rot)  - rotational entropy
     S(trans)- translational entropy
The entropies will be listed as multiplied by the temperature to get
units of energy

Electronic entropy                ...      0.00065446 Eh      0.41 kcal/mol
Vibrational entropy               ...      0.00002943 Eh      0.02 kcal/mol
Rotational entropy                ...      0.00564877 Eh      3.54 kcal/mol
Translational entropy             ...      0.01618771 Eh     10.16 kcal/mol
-----------------------------------------------------------------------
Final entropy term                ...      0.02252036 Eh     14.13 kcal/mol

In case the symmetry of your molecule has not been determined correctly
or in case you have a reason to use a different symmetry number we print 
out the resulting rotational entropy values for sn=1,12 :
 --------------------------------------------------------
|  sn= 1 | S(rot)=       0.00668606 Eh      4.20 kcal/mol|
|  sn= 2 | S(rot)=       0.00603160 Eh      3.78 kcal/mol|
|  sn= 3 | S(rot)=       0.00564877 Eh      3.54 kcal/mol|
|  sn= 4 | S(rot)=       0.00537715 Eh      3.37 kcal/mol|
|  sn= 5 | S(rot)=       0.00516646 Eh      3.24 kcal/mol|
|  sn= 6 | S(rot)=       0.00499431 Eh      3.13 kcal/mol|
|  sn= 7 | S(rot)=       0.00484877 Eh      3.04 kcal/mol|
|  sn= 8 | S(rot)=       0.00472269 Eh      2.96 kcal/mol|
|  sn= 9 | S(rot)=       0.00461148 Eh      2.89 kcal/mol|
|  sn=10 | S(rot)=       0.00451200 Eh      2.83 kcal/mol|
|  sn=11 | S(rot)=       0.00442201 Eh      2.77 kcal/mol|
|  sn=12 | S(rot)=       0.00433986 Eh      2.72 kcal/mol|
 --------------------------------------------------------


-------------------
GIBBS FREE ENERGY
-------------------

The Gibbs free energy is G = H - T*S

Total enthalpy                    ...    -39.77450226 Eh 
Total entropy correction          ...     -0.02252036 Eh    -14.13 kcal/mol
-----------------------------------------------------------------------
Final Gibbs free energy         ...    -39.79702263 Eh

For completeness - the Gibbs free energy minus the electronic energy
G-E(el)                           ...      0.01165409 Eh      7.31 kcal/mol


Timings for individual modules:

Sum of individual times         ...       60.450 sec (=   1.008 min)
GTO integral calculation        ...       10.469 sec (=   0.174 min)  17.3 %
SCF iterations                  ...       31.933 sec (=   0.532 min)  52.8 %
SCF Gradient evaluation         ...        9.406 sec (=   0.157 min)  15.6 %
Geometry relaxation             ...        0.178 sec (=   0.003 min)   0.3 %
Analytical frequency calculation...        8.464 sec (=   0.141 min)  14.0 %
                             ****ORCA TERMINATED NORMALLY****
TOTAL RUN TIME: 0 days 0 hours 1 minutes 10 seconds 869 msec

slurmID:    32260091
totalRuntime[s]:    70.920850522
