
                                 *****************
                                 * O   R   C   A *
                                 *****************

                                            #,                                       
                                            ###                                      
                                            ####                                     
                                            #####                                    
                                            ######                                   
                                           ########,                                 
                                     ,,################,,,,,                         
                               ,,#################################,,                 
                          ,,##########################################,,             
                       ,#########################################, ''#####,          
                    ,#############################################,,   '####,        
                  ,##################################################,,,,####,       
                ,###########''''           ''''###############################       
              ,#####''   ,,,,##########,,,,          '''####'''          '####       
            ,##' ,,,,###########################,,,                        '##       
           ' ,,###''''                  '''############,,,                           
         ,,##''                                '''############,,,,        ,,,,,,###''
      ,#''                                            '''#######################'''  
     '                                                          ''''####''''         
             ,#######,   #######,   ,#######,      ##                                
            ,#'     '#,  ##    ##  ,#'     '#,    #''#        ######   ,####,        
            ##       ##  ##   ,#'  ##            #'  '#       #        #'  '#        
            ##       ##  #######   ##           ,######,      #####,   #    #        
            '#,     ,#'  ##    ##  '#,     ,#' ,#      #,         ##   #,  ,#        
             '#######'   ##     ##  '#######'  #'      '#     #####' # '####'        



                  #######################################################
                  #                        -***-                        #
                  #          Department of theory and spectroscopy      #
                  #    Directorship and core code : Frank Neese         #
                  #        Max Planck Institute fuer Kohlenforschung    #
                  #                Kaiser Wilhelm Platz 1               #
                  #                 D-45470 Muelheim/Ruhr               #
                  #                      Germany                        #
                  #                                                     #
                  #                  All rights reserved                #
                  #                        -***-                        #
                  #######################################################


                         Program Version 5.0.4 -  RELEASE  -


 With contributions from (in alphabetic order):
   Daniel Aravena         : Magnetic Suceptibility
   Michael Atanasov       : Ab Initio Ligand Field Theory (pilot matlab implementation)
   Alexander A. Auer      : GIAO ZORA, VPT2 properties, NMR spectrum
   Ute Becker             : Parallelization
   Giovanni Bistoni       : ED, misc. LED, open-shell LED, HFLD
   Martin Brehm           : Molecular dynamics
   Dmytro Bykov           : SCF Hessian
   Vijay G. Chilkuri      : MRCI spin determinant printing, contributions to CSF-ICE
   Dipayan Datta          : RHF DLPNO-CCSD density
   Achintya Kumar Dutta   : EOM-CC, STEOM-CC
   Dmitry Ganyushin       : Spin-Orbit,Spin-Spin,Magnetic field MRCI
   Miquel Garcia          : C-PCM and meta-GGA Hessian, CC/C-PCM, Gaussian charge scheme
   Yang Guo               : DLPNO-NEVPT2, F12-NEVPT2, CIM, IAO-localization
   Andreas Hansen         : Spin unrestricted coupled pair/coupled cluster methods
   Benjamin Helmich-Paris : MC-RPA, TRAH-SCF, COSX integrals
   Lee Huntington         : MR-EOM, pCC
   Robert Izsak           : Overlap fitted RIJCOSX, COSX-SCS-MP3, EOM
   Marcus Kettner         : VPT2
   Christian Kollmar      : KDIIS, OOCD, Brueckner-CCSD(T), CCSD density, CASPT2, CASPT2-K
   Simone Kossmann        : Meta GGA functionals, TD-DFT gradient, OOMP2, MP2 Hessian
   Martin Krupicka        : Initial AUTO-CI
   Lucas Lang             : DCDCAS
   Marvin Lechner         : AUTO-CI (C++ implementation), FIC-MRCC
   Dagmar Lenk            : GEPOL surface, SMD
   Dimitrios Liakos       : Extrapolation schemes; Compound Job, initial MDCI parallelization
   Dimitrios Manganas     : Further ROCIS development; embedding schemes
   Dimitrios Pantazis     : SARC Basis sets
   Anastasios Papadopoulos: AUTO-CI, single reference methods and gradients
   Taras Petrenko         : DFT Hessian,TD-DFT gradient, ASA, ECA, R-Raman, ABS, FL, XAS/XES, NRVS
   Peter Pinski           : DLPNO-MP2, DLPNO-MP2 Gradient
   Christoph Reimann      : Effective Core Potentials
   Marius Retegan         : Local ZFS, SOC
   Christoph Riplinger    : Optimizer, TS searches, QM/MM, DLPNO-CCSD(T), (RO)-DLPNO pert. Triples
   Tobias Risthaus        : Range-separated hybrids, TD-DFT gradient, RPA, STAB
   Michael Roemelt        : Original ROCIS implementation
   Masaaki Saitow         : Open-shell DLPNO-CCSD energy and density
   Barbara Sandhoefer     : DKH picture change effects
   Avijit Sen             : IP-ROCIS
   Kantharuban Sivalingam : CASSCF convergence, NEVPT2, FIC-MRCI
   Bernardo de Souza      : ESD, SOC TD-DFT
   Georgi Stoychev        : AutoAux, RI-MP2 NMR, DLPNO-MP2 response
   Willem Van den Heuvel  : Paramagnetic NMR
   Boris Wezisla          : Elementary symmetry handling
   Frank Wennmohs         : Technical directorship


 We gratefully acknowledge several colleagues who have allowed us to
 interface, adapt or use parts of their codes:
   Stefan Grimme, W. Hujo, H. Kruse, P. Pracht,  : VdW corrections, initial TS optimization,
                  C. Bannwarth, S. Ehlert          DFT functionals, gCP, sTDA/sTD-DF
   Ed Valeev, F. Pavosevic, A. Kumar             : LibInt (2-el integral package), F12 methods
   Garnet Chan, S. Sharma, J. Yang, R. Olivares  : DMRG
   Ulf Ekstrom                                   : XCFun DFT Library
   Mihaly Kallay                                 : mrcc  (arbitrary order and MRCC methods)
   Jiri Pittner, Ondrej Demel                    : Mk-CCSD
   Frank Weinhold                                : gennbo (NPA and NBO analysis)
   Christopher J. Cramer and Donald G. Truhlar   : smd solvation model
   Lars Goerigk                                  : TD-DFT with DH, B97 family of functionals
   V. Asgeirsson, H. Jonsson                     : NEB implementation
   FAccTs GmbH                                   : IRC, NEB, NEB-TS, DLPNO-Multilevel, CI-OPT
                                                   MM, QMMM, 2- and 3-layer-ONIOM, Crystal-QMMM,
                                                   LR-CPCM, SF, NACMEs, symmetry and pop. for TD-DFT,
                                                   nearIR, NL-DFT gradient (VV10), updates on ESD,
                                                   ML-optimized integration grids
   S Lehtola, MJT Oliveira, MAL Marques          : LibXC Library
   Liviu Ungur et al                             : ANISO software


 Your calculation uses the libint2 library for the computation of 2-el integrals
 For citations please refer to: http://libint.valeyev.net

 Your ORCA version has been built with support for libXC version: 5.1.0
 For citations please refer to: https://tddft.org/programs/libxc/

 This ORCA versions uses:
   CBLAS   interface :  Fast vector & matrix operations
   LAPACKE interface :  Fast linear algebra routines
   SCALAPACK package :  Parallel linear algebra routines
   Shared memory     :  Shared parallel matrices
   BLAS/LAPACK       :  OpenBLAS 0.3.15  USE64BITINT DYNAMIC_ARCH NO_AFFINITY SkylakeX SINGLE_THREADED
        Core in use  :  SkylakeX
   Copyright (c) 2011-2014, The OpenBLAS Project


Your calculation utilizes the atom-pairwise dispersion correction
with the zero-damping scheme (D30)
Cite in your paper:
S.Grimme, J.Antony, S.Ehrlich and H.Krieg, J.Chem.Phys., 132, (2010), 154104 
   

XCFun DFT library Copyright 2009-2010 Ulf Ekstrom and contributors.
See http://admol.org/xcfun for more information.
This is free software; see the source code for copying conditions.
There is ABSOLUTELY NO WARRANTY; not even for MERCHANTABILITY or FITNESS FOR A PARTICULAR PURPOSE.
For details see the documentation.
Scientific users of this library should cite U. Ekstrom, L. Visscher, R. Bast, A. J. Thorvaldsen and K. Ruud;
J.Chem.Theor.Comp. 2010, DOI: 10.1021/ct100117s
XCFun Version 0.99 

================================================================================

----- Orbital basis set information -----
Your calculation utilizes the basis: def2-TZVPD
   F. Weigend and R. Ahlrichs, Phys. Chem. Chem. Phys. 7, 3297 (2005).
   D. Rappoport and F. Furche, J. Chem. Phys. 133 134105 (2010).

----- AuxJ basis set information -----
Your calculation utilizes the auxiliary basis: def2/J
   F. Weigend, Phys. Chem. Chem. Phys. 8, 1057 (2006).

================================================================================
                                        WARNINGS
                       Please study these warnings very carefully!
================================================================================


WARNING: Geometry Optimization
  ===> : Switching off AutoStart
         For restart on a previous wavefunction, please use MOREAD

INFO   : the flag for use of the SHARK integral package has been found!

================================================================================
                                       INPUT FILE
================================================================================
NAME = /beegfs/scratch/ispackman/PFAS_EPR_calcs/benchmark/JChemEd_CF3_radical/CH3_radical_109.0_degrees_IN-PROGRESS/CH3_radical_109.0_degrees.inp
|  1> ! UKS TightSCF wB97x-D3 def2-TZVPD xyzfile opt freq
|  2> 
|  3> # CH3 radical 109.0 degrees fixed
|  4> 
|  5> %maxcore 1000
|  6> %pal
|  7> nprocs 18
|  8> end
|  9> 
| 10> %geom Constraints
| 11>         { A * 0 * C }
| 12>     end
| 13> end
| 14> * xyz 0 2
| 15> C 0.00 0.00 0.00
| 16> H 1.0152643975 0.0000000000 -0.3682909218
| 17> H -0.5076321988 0.8792447598 -0.3682909218
| 18> H -0.5076321988 -0.8792447598 -0.3682909218
| 19> **                         ****END OF INPUT****
================================================================================

                       *****************************
                       * Geometry Optimization Run *
                       *****************************

Geometry optimization settings:
Update method            Update   .... BFGS
Choice of coordinates    CoordSys .... Z-matrix Internals
Initial Hessian          InHess   .... Almoef's Model

Convergence Tolerances:
Energy Change            TolE     ....  5.0000e-06 Eh
Max. Gradient            TolMAXG  ....  3.0000e-04 Eh/bohr
RMS Gradient             TolRMSG  ....  1.0000e-04 Eh/bohr
Max. Displacement        TolMAXD  ....  4.0000e-03 bohr
RMS Displacement         TolRMSD  ....  2.0000e-03 bohr
Strict Convergence                ....  False
------------------------------------------------------------------------------
                        ORCA OPTIMIZATION COORDINATE SETUP
------------------------------------------------------------------------------

The optimization will be done in new redundant internal coordinates
Making redundant internal coordinates   ...  (new redundants) done
Evaluating the initial hessian          ...  (Almloef) done
Evaluating the coordinates              ...  done
Calculating the B-matrix                .... done
Calculating the G-matrix                .... done
Diagonalizing the G-matrix              .... done
Imposing constraints:
 Iter   0:  RMS(Cart)=    0.0000000000 RMS(Int)=    0.0000000000
CONVERGED
Will constrain atom 0 coordinate 1 
Will constrain atom 0 coordinate 2 
Will constrain atom 1 coordinate 2 
The first mode is                       ....    1
The number of degrees of freedom        ....    6
Storing new coordinates                 .... done

    -----------------------------------------------------------------
                    Redundant Internal Coordinates


    -----------------------------------------------------------------
         Definition                    Initial Value    Approx d2E/dq
    -----------------------------------------------------------------
      1. B(H   1,C   0)                  1.0800         0.373575   
      2. B(H   2,C   0)                  1.0800         0.373575   
      3. B(H   3,C   0)                  1.0800         0.373575   
      4. A(H   2,C   0,H   3)          109.0000         0.294224 C 
      5. A(H   1,C   0,H   2)          109.0000         0.294224 C 
      6. A(H   1,C   0,H   3)          109.0000         0.294224 C 
      7. I(H   1,H   3,H   2,C   0)     55.8996         0.004527   
    -----------------------------------------------------------------

Number of atoms                         .... 4
Number of degrees of freedom            .... 7

         *************************************************************
         *                GEOMETRY OPTIMIZATION CYCLE   1            *
         *************************************************************
---------------------------------
CARTESIAN COORDINATES (ANGSTROEM)
---------------------------------
  C      0.000000    0.000000    0.000000
  H      1.015264    0.000000   -0.368291
  H     -0.507632    0.879245   -0.368291
  H     -0.507632   -0.879245   -0.368291

----------------------------
CARTESIAN COORDINATES (A.U.)
----------------------------
  NO LB      ZA    FRAG     MASS         X           Y           Z
   0 C     6.0000    0    12.011    0.000000    0.000000    0.000000
   1 H     1.0000    0     1.008    1.918572    0.000000   -0.695969
   2 H     1.0000    0     1.008   -0.959286    1.661532   -0.695969
   3 H     1.0000    0     1.008   -0.959286   -1.661532   -0.695969

--------------------------------
INTERNAL COORDINATES (ANGSTROEM)
--------------------------------
 C      0   0   0     0.000000000000     0.00000000     0.00000000
 H      1   0   0     1.079999999959     0.00000000     0.00000000
 H      1   2   0     1.079999999988   109.00000000     0.00000000
 H      1   2   3     1.079999999988   109.00000000   118.86382289

---------------------------
INTERNAL COORDINATES (A.U.)
---------------------------
 C      0   0   0     0.000000000000     0.00000000     0.00000000
 H      1   0   0     2.040904224557     0.00000000     0.00000000
 H      1   2   0     2.040904224613   109.00000000     0.00000000
 H      1   2   3     2.040904224613   109.00000000   118.86382289

---------------------
BASIS SET INFORMATION
---------------------
There are 2 groups of distinct atoms

 Group   1 Type C   : 12s6p3d1f contracted to 6s3p3d1f pattern {621111/411/111/1}
 Group   2 Type H   : 5s2p contracted to 3s2p pattern {311/11}

Atom   0C    basis set group =>   1
Atom   1H    basis set group =>   2
Atom   2H    basis set group =>   2
Atom   3H    basis set group =>   2
---------------------------------
AUXILIARY/J BASIS SET INFORMATION
---------------------------------
There are 2 groups of distinct atoms

 Group   1 Type C   : 12s5p4d2f1g contracted to 6s4p3d1f1g pattern {711111/2111/211/2/1}
 Group   2 Type H   : 5s2p1d contracted to 3s1p1d pattern {311/2/1}

Atom   0C    basis set group =>   1
Atom   1H    basis set group =>   2
Atom   2H    basis set group =>   2
Atom   3H    basis set group =>   2


           ************************************************************
           *        Program running with 18 parallel MPI-processes    *
           *              working on a common directory               *
           ************************************************************
------------------------------------------------------------------------------
                           ORCA GTO INTEGRAL CALCULATION
                           -- RI-GTO INTEGRALS CHOSEN --
------------------------------------------------------------------------------
------------------------------------------------------------------------------
                   ___                                                        
                  /   \      - P O W E R E D   B Y -                         
                 /     \                                                     
                 |  |  |   _    _      __       _____    __    __             
                 |  |  |  | |  | |    /  \     |  _  \  |  |  /  |          
                  \  \/   | |  | |   /    \    | | | |  |  | /  /          
                 / \  \   | |__| |  /  /\  \   | |_| |  |  |/  /          
                |  |  |   |  __  | /  /__\  \  |    /   |      \           
                |  |  |   | |  | | |   __   |  |    \   |  |\   \          
                \     /   | |  | | |  |  |  |  | |\  \  |  | \   \       
                 \___/    |_|  |_| |__|  |__|  |_| \__\ |__|  \__/        
                                                                              
                      - O R C A' S   B I G   F R I E N D -                    
                                      &                                       
                       - I N T E G R A L  F E E D E R -                       
                                                                              
 v1 FN, 2020, v2 2021                                                         
------------------------------------------------------------------------------


Reading SHARK input file /beegfs/scratch/ispackman/PFAS_EPR_calcs/benchmark/JChemEd_CF3_radical/CH3_radical_109.0_degrees_IN-PROGRESS/CH3_radical_109.0_degrees.SHARKINP.tmp ... ok
----------------------
SHARK INTEGRAL PACKAGE
----------------------

Number of atoms                             ...      4
Number of basis functions                   ...     64
Number of shells                            ...     28
Maximum angular momentum                    ...      3
Integral batch strategy                     ... SHARK/LIBINT Hybrid
RI-J (if used) integral strategy            ... SPLIT-RIJ (Revised 2003 algorithm where possible)
Printlevel                                  ...      1
Contraction scheme used                     ... SEGMENTED contraction
Coulomb Range Separation                    ... NOT USED
Exchange Range Separation                   ... Long Range
   Mu parameter                             ...  0.250000
   Scaling (regular/separated)              ...  0.195728  0.804272
Finite Nucleus Model                        ... NOT USED
Auxiliary Coulomb fitting basis             ... AVAILABLE
   # of basis functions in Aux-J            ...     82
   # of shells in Aux-J                     ...     30
   Maximum angular momentum in Aux-J        ...      4
Auxiliary J/K fitting basis                 ... NOT available
Auxiliary Correlation fitting basis         ... NOT available
Auxiliary 'external' fitting basis          ... NOT available
Integral threshold                          ...     2.500000e-11
Primitive cut-off                           ...     2.500000e-12
Primitive pair pre-selection threshold      ...     2.500000e-12

Calculating pre-screening integrals         ... done (  0.0 sec) Dimension = 28
Organizing shell pair data                  ... done (  0.0 sec)
Shell pair information
Total number of shell pairs                 ...       406
Shell pairs after pre-screening             ...       406
Total number of primitive shell pairs       ...       977
Primitive shell pairs kept                  ...       944
          la=0 lb=0:    120 shell pairs
          la=1 lb=0:    135 shell pairs
          la=1 lb=1:     45 shell pairs
          la=2 lb=0:     45 shell pairs
          la=2 lb=1:     27 shell pairs
          la=2 lb=2:      6 shell pairs
          la=3 lb=0:     15 shell pairs
          la=3 lb=1:      9 shell pairs
          la=3 lb=2:      3 shell pairs
          la=3 lb=3:      1 shell pairs

Calculating one electron integrals          ... done (  0.0 sec)
Calculating RI/J V-Matrix + Cholesky decomp.... done (  0.0 sec)
Calculating Nuclear repulsion               ... done (  0.0 sec) ENN=      9.722401535376 Eh

SHARK setup successfully completed in   0.2 seconds

Maximum memory used throughout the entire GTOINT-calculation: 14.0 MB


           ************************************************************
           *        Program running with 18 parallel MPI-processes    *
           *              working on a common directory               *
           ************************************************************
-------------------------------------------------------------------------------
                                 ORCA SCF
-------------------------------------------------------------------------------

------------
SCF SETTINGS
------------
Hamiltonian:
 Density Functional     Method          .... DFT(GTOs)
 Exchange Functional    Exchange        .... WB97X-D3
 Correlation Functional Correlation     .... WB97X-D3
 Gradients option       PostSCFGGA      .... off
 Hybrid DFT is turned on
   Fraction HF Exchange ScalHFX         ....  0.195728
   Scaling of DF-GGA-X  ScalDFX         ....  0.000000
   Scaling of DF-GGA-C  ScalDFC         ....  1.000000
   Scaling of DF-LDA-C  ScalLDAC        ....  1.000000
   Perturbative correction              ....  0.000000
   Density functional embedding theory  .... OFF
 Long-range corrected/Screened/Range-Separated Hybrid DFT is turned on
   Amount of maximum screened exact exchange              ....  0.804272
   Range separation parameter mu (erf(mu*r12)/r12)        ....  0.250000
 RI-approximation to the Coulomb term is turned on
   Number of AuxJ basis functions       .... 82
   RIJ-COSX (HFX calculated with COS-X)).... on


General Settings:
 Integral files         IntName         .... /beegfs/scratch/ispackman/PFAS_EPR_calcs/benchmark/JChemEd_CF3_radical/CH3_radical_109.0_degrees_IN-PROGRESS/CH3_radical_109.0_degrees
 Hartree-Fock type      HFTyp           .... UHF
 Total Charge           Charge          ....    0
 Multiplicity           Mult            ....    2
 Number of Electrons    NEL             ....    9
 Basis Dimension        Dim             ....   64
 Nuclear Repulsion      ENuc            ....      9.7224015354 Eh

Convergence Acceleration:
 DIIS                   CNVDIIS         .... on
   Start iteration      DIISMaxIt       ....    12
   Startup error        DIISStart       ....  0.200000
   # of expansion vecs  DIISMaxEq       ....     5
   Bias factor          DIISBfac        ....   1.050
   Max. coefficient     DIISMaxC        ....  10.000
 Trust-Rad. Augm. Hess. CNVTRAH         .... auto
   Auto Start mean grad. ratio tolernc. ....  1.125000
   Auto Start start iteration           ....    20
   Auto Start num. interpolation iter.  ....    10
   Max. Number of Micro iterations      ....    16
   Max. Number of Macro iterations      .... Maxiter - #DIIS iter
   Number of Davidson start vectors     ....     2
   Converg. threshold I  (grad. norm)   ....   1.000e-05
   Converg. threshold II (energy diff.) ....   1.000e-08
   Grad. Scal. Fac. for Micro threshold ....   0.100
   Minimum threshold for Micro iter.    ....   0.010
   NR start threshold (gradient norm)   ....   0.001
   Initial trust radius                 ....   0.400
   Minimum AH scaling param. (alpha)    ....   1.000
   Maximum AH scaling param. (alpha)    .... 1000.000
   Orbital update algorithm             .... Taylor
   White noise on init. David. guess    .... on
   Maximum white noise                  ....   0.010
   Quad. conv. algorithm                .... NR
 SOSCF                  CNVSOSCF        .... off
 Level Shifting         CNVShift        .... on
   Level shift para.    LevelShift      ....    0.2500
   Turn off err/grad.   ShiftErr        ....    0.0010
 Zerner damping         CNVZerner       .... off
 Static damping         CNVDamp         .... on
   Fraction old density DampFac         ....    0.7000
   Max. Damping (<1)    DampMax         ....    0.9800
   Min. Damping (>=0)   DampMin         ....    0.0000
   Turn off err/grad.   DampErr         ....    0.1000
 Fernandez-Rico         CNVRico         .... off

SCF Procedure:
 Maximum # iterations   MaxIter         ....   125
 SCF integral mode      SCFMode         .... Direct
   Integral package                     .... SHARK and LIBINT hybrid scheme
 Reset frequency        DirectResetFreq ....    20
 Integral Threshold     Thresh          ....  2.500e-11 Eh
 Primitive CutOff       TCut            ....  2.500e-12 Eh

Convergence Tolerance:
 Convergence Check Mode ConvCheckMode   .... Total+1el-Energy
 Convergence forced     ConvForced      .... 0
 Energy Change          TolE            ....  1.000e-08 Eh
 1-El. energy change                    ....  1.000e-05 Eh
 DIIS Error             TolErr          ....  5.000e-07


Diagonalization of the overlap matrix:
Smallest eigenvalue                        ... 5.160e-05
Time for diagonalization                   ...    0.002 sec
Threshold for overlap eigenvalues          ... 1.000e-08
Number of eigenvalues below threshold      ... 0
Time for construction of square roots      ...    0.014 sec
Total time needed                          ...    0.016 sec

Time for model grid setup =    0.038 sec

------------------------------
INITIAL GUESS: MODEL POTENTIAL
------------------------------
Loading Hartree-Fock densities                     ... done
Calculating cut-offs                               ... done
Initializing the effective Hamiltonian             ... done
Setting up the integral package (SHARK)            ... done
Starting the Coulomb interaction                   ... done (   0.1 sec)
Reading the grid                                   ... done
Mapping shells                                     ... done
Starting the XC term evaluation                    ... done (   0.0 sec)
  promolecular density results
     # of electrons  =      8.998016087
     EX              =     -5.934248399
     EC              =     -0.259541471
     EX+EC           =     -6.193789870
Transforming the Hamiltonian                       ... done (   0.0 sec)
Diagonalizing the Hamiltonian                      ... done (   0.0 sec)
Back transforming the eigenvectors                 ... done (   0.0 sec)
Now organizing SCF variables                       ... done
                      ------------------
                      INITIAL GUESS DONE (   0.1 sec)
                      ------------------
-------------------
DFT GRID GENERATION
-------------------

General Integration Accuracy     IntAcc      ... 4.388
Radial Grid Type                 RadialGrid  ... OptM3 with GC (2021)
Angular Grid (max. ang.)         AngularGrid ... 4 (Lebedev-302)
Angular grid pruning method      GridPruning ... 4 (adaptive)
Weight generation scheme         WeightScheme... Becke
Basis function cutoff            BFCut       ... 1.0000e-11
Integration weight cutoff        WCut        ... 1.0000e-14
Angular grids for H and He will be reduced by one unit
Partially contracted basis set               ... off
Rotationally invariant grid construction     ... off

Total number of grid points                  ...    17046
Total number of batches                      ...      269
Average number of points per batch           ...       63
Average number of grid points per atom       ...     4262
Time for grid setup =    0.101 sec

--------------------
COSX GRID GENERATION
--------------------

GRIDX 1
-------
General Integration Accuracy     IntAcc      ... 3.816
Radial Grid Type                 RadialGrid  ... OptM3 with GC (2021)
Angular Grid (max. ang.)         AngularGrid ... 1 (Lebedev-50)
Angular grid pruning method      GridPruning ... 4 (adaptive)
Weight generation scheme         WeightScheme... Becke
Basis function cutoff            BFCut       ... 1.0000e-11
Integration weight cutoff        WCut        ... 1.0000e-14
Angular grids for H and He will be reduced by one unit
Partially contracted basis set               ... on
Rotationally invariant grid construction     ... off

Total number of grid points                  ...     2151
Total number of batches                      ...       36
Average number of points per batch           ...       59
Average number of grid points per atom       ...      538
UseSFitting                                  ... on

GRIDX 2
-------
General Integration Accuracy     IntAcc      ... 4.020
Radial Grid Type                 RadialGrid  ... OptM3 with GC (2021)
Angular Grid (max. ang.)         AngularGrid ... 2 (Lebedev-110)
Angular grid pruning method      GridPruning ... 4 (adaptive)
Weight generation scheme         WeightScheme... Becke
Basis function cutoff            BFCut       ... 1.0000e-11
Integration weight cutoff        WCut        ... 1.0000e-14
Angular grids for H and He will be reduced by one unit
Partially contracted basis set               ... on
Rotationally invariant grid construction     ... off

Total number of grid points                  ...     5052
Total number of batches                      ...       81
Average number of points per batch           ...       62
Average number of grid points per atom       ...     1263
UseSFitting                                  ... on

GRIDX 3
-------
General Integration Accuracy     IntAcc      ... 4.338
Radial Grid Type                 RadialGrid  ... OptM3 with GC (2021)
Angular Grid (max. ang.)         AngularGrid ... 3 (Lebedev-194)
Angular grid pruning method      GridPruning ... 4 (adaptive)
Weight generation scheme         WeightScheme... Becke
Basis function cutoff            BFCut       ... 1.0000e-11
Integration weight cutoff        WCut        ... 1.0000e-14
Angular grids for H and He will be reduced by one unit
Partially contracted basis set               ... on
Rotationally invariant grid construction     ... off

Total number of grid points                  ...    11721
Total number of batches                      ...      185
Average number of points per batch           ...       63
Average number of grid points per atom       ...     2930
UseSFitting                                  ... on

Time for X-Grid setup             =    0.255 sec

--------------
SCF ITERATIONS
--------------
ITER       Energy         Delta-E        Max-DP      RMS-DP      [F,P]     Damp
               ***  Starting incremental Fock matrix formation  ***
  0    -39.7910652858   0.000000000000 0.04006892  0.00094230  0.0775454 0.7000
  1    -39.8047876539  -0.013722368085 0.03944698  0.00083885  0.0496099 0.7000
                               ***Turning on DIIS***
  2    -39.8125033066  -0.007715652676 0.08896907  0.00189839  0.0285067 0.0000
  3    -39.8257391737  -0.013235867084 0.02481126  0.00054681  0.0194844 0.0000
  4    -39.8273162889  -0.001577115202 0.00985669  0.00017968  0.0034859 0.0000
  5    -39.8273833933  -0.000067104427 0.00818925  0.00014416  0.0015911 0.0000
  6    -39.8274038800  -0.000020486738 0.00813966  0.00014006  0.0006288 0.0000
               *** Restarting incremental Fock matrix formation ***
                                   *** Resetting DIIS ***
  7    -39.8274172855  -0.000013405431 0.00111247  0.00001864  0.0000808 0.0000
  8    -39.8274174142  -0.000000128713 0.00053553  0.00000922  0.0000366 0.0000
  9    -39.8274174491  -0.000000034941 0.00001709  0.00000075  0.0000138 0.0000
 10    -39.8274174510  -0.000000001891 0.00000762  0.00000022  0.0000052 0.0000
                 **** Energy Check signals convergence ****

               *****************************************************
               *                     SUCCESS                       *
               *           SCF CONVERGED AFTER  11 CYCLES          *
               *****************************************************

Old exchange energy                            =     -2.173881629 Eh
New exchange energy                            =     -2.173886798 Eh
Exchange energy change after final integration =     -0.000005169 Eh
Total energy after final integration           =    -39.827422621 Eh
Final COS-X integration done in                =     0.114 sec

----------------
TOTAL SCF ENERGY
----------------

Total Energy       :          -39.82742262 Eh           -1083.75927 eV

Components:
Nuclear Repulsion  :            9.72240154 Eh             264.56000 eV
Electronic Energy  :          -49.54982416 Eh           -1348.31926 eV
One Electron Energy:          -71.72510535 Eh           -1951.73934 eV
Two Electron Energy:           22.17528119 Eh             603.42008 eV
Max COSX asymmetry :            0.00000007 Eh               0.00000 eV

Virial components:
Potential Energy   :          -79.48120228 Eh           -2162.79347 eV
Kinetic Energy     :           39.65377966 Eh            1079.03420 eV
Virial Ratio       :            2.00437898


DFT components:
N(Alpha)           :        4.999999704831 electrons
N(Beta)            :        4.000000841481 electrons
N(Total)           :        9.000000546312 electrons
E(XC)              :       -4.315641728352 Eh       
DFET-embed. en.    :        0.000000000000 Eh       

---------------
SCF CONVERGENCE
---------------

  Last Energy change         ...   -5.2346e-10  Tolerance :   1.0000e-08
  Last MAX-Density change    ...    0.0000e+00  Tolerance :   1.0000e-07
  Last RMS-Density change    ...    0.0000e+00  Tolerance :   5.0000e-09
  Last DIIS Error            ...    1.2956e-06  Tolerance :   5.0000e-07

             **** THE GBW FILE WAS UPDATED (/beegfs/scratch/ispackman/PFAS_EPR_calcs/benchmark/JChemEd_CF3_radical/CH3_radical_109.0_degrees_IN-PROGRESS/CH3_radical_109.0_degrees.gbw) ****
             **** DENSITY /beegfs/scratch/ispackman/PFAS_EPR_calcs/benchmark/JChemEd_CF3_radical/CH3_radical_109.0_degrees_IN-PROGRESS/CH3_radical_109.0_degrees.scfp WAS UPDATED ****
             **** ENERGY FILE WAS UPDATED (/beegfs/scratch/ispackman/PFAS_EPR_calcs/benchmark/JChemEd_CF3_radical/CH3_radical_109.0_degrees_IN-PROGRESS/CH3_radical_109.0_degrees.en.tmp) ****
----------------------
UHF SPIN CONTAMINATION
----------------------

Warning: in a DFT calculation there is little theoretical justification to 
         calculate <S**2> as in Hartree-Fock theory. We will do it anyways
         but you should keep in mind that the values have only limited relevance

Expectation value of <S**2>     :     0.752981
Ideal value S*(S+1) for S=0.5   :     0.750000
Deviation                       :     0.002981

             **** THE GBW FILE WAS UPDATED (/beegfs/scratch/ispackman/PFAS_EPR_calcs/benchmark/JChemEd_CF3_radical/CH3_radical_109.0_degrees_IN-PROGRESS/CH3_radical_109.0_degrees.gbw) ****
             **** DENSITY /beegfs/scratch/ispackman/PFAS_EPR_calcs/benchmark/JChemEd_CF3_radical/CH3_radical_109.0_degrees_IN-PROGRESS/CH3_radical_109.0_degrees.scfp WAS UPDATED ****
----------------
ORBITAL ENERGIES
----------------
                 SPIN UP ORBITALS
  NO   OCC          E(Eh)            E(eV) 
   0   1.0000     -10.290612      -280.0218 
   1   1.0000      -0.811044       -22.0696 
   2   1.0000      -0.507655       -13.8140 
   3   1.0000      -0.507632       -13.8134 
   4   1.0000      -0.360401        -9.8070 
   5   0.0000       0.076116         2.0712 
   6   0.0000       0.161527         4.3954 
   7   0.0000       0.161536         4.3956 
   8   0.0000       0.194941         5.3046 
   9   0.0000       0.196519         5.3476 
  10   0.0000       0.196523         5.3477 
  11   0.0000       0.223828         6.0907 
  12   0.0000       0.254077         6.9138 
  13   0.0000       0.254083         6.9139 
  14   0.0000       0.312627         8.5070 
  15   0.0000       0.358796         9.7633 
  16   0.0000       0.358806         9.7636 
  17   0.0000       0.367391         9.9972 
  18   0.0000       0.374368        10.1871 
  19   0.0000       0.385556        10.4915 
  20   0.0000       0.385560        10.4916 
  21   0.0000       0.413532        11.2528 
  22   0.0000       0.413540        11.2530 
  23   0.0000       0.525352        14.2956 
  24   0.0000       0.552635        15.0380 
  25   0.0000       0.552639        15.0381 
  26   0.0000       0.565398        15.3853 
  27   0.0000       0.781866        21.2756 
  28   0.0000       0.796067        21.6621 
  29   0.0000       0.796070        21.6622 
  30   0.0000       0.877104        23.8672 
  31   0.0000       0.877108        23.8673 
  32   0.0000       1.005345        27.3568 
  33   0.0000       1.137117        30.9425 
  34   0.0000       1.137161        30.9437 
  35   0.0000       1.624188        44.1964 
  36   0.0000       1.712717        46.6054 
  37   0.0000       1.757349        47.8199 
  38   0.0000       1.763666        47.9918 
  39   0.0000       1.763671        47.9919 
  40   0.0000       1.925888        52.4061 
  41   0.0000       1.925936        52.4074 
  42   0.0000       2.170505        59.0624 
  43   0.0000       2.261121        61.5282 
  44   0.0000       2.322492        63.1982 
  45   0.0000       2.322578        63.2006 
  46   0.0000       2.550569        69.4045 
  47   0.0000       2.550609        69.4056 
  48   0.0000       2.721329        74.0511 
  49   0.0000       2.721332        74.0512 
  50   0.0000       2.863843        77.9291 
  51   0.0000       3.011506        81.9473 
  52   0.0000       3.161149        86.0192 
  53   0.0000       3.161218        86.0211 
  54   0.0000       3.284953        89.3881 
  55   0.0000       3.284962        89.3884 
  56   0.0000       3.459719        94.1437 
  57   0.0000       3.505658        95.3938 
  58   0.0000       3.640978        99.0761 
  59   0.0000       3.640989        99.0763 
  60   0.0000       4.405441       119.8781 
  61   0.0000       4.405532       119.8806 
  62   0.0000       4.565565       124.2353 
  63   0.0000      22.193461       603.9148 

                 SPIN DOWN ORBITALS
  NO   OCC          E(Eh)            E(eV) 
   0   1.0000     -10.279726      -279.7256 
   1   1.0000      -0.771467       -20.9927 
   2   1.0000      -0.493420       -13.4266 
   3   1.0000      -0.493358       -13.4250 
   4   0.0000      -0.013257        -0.3608 
   5   0.0000       0.085400         2.3239 
   6   0.0000       0.166231         4.5234 
   7   0.0000       0.166240         4.5236 
   8   0.0000       0.200311         5.4507 
   9   0.0000       0.200314         5.4508 
  10   0.0000       0.233178         6.3451 
  11   0.0000       0.239236         6.5099 
  12   0.0000       0.259101         7.0505 
  13   0.0000       0.259104         7.0506 
  14   0.0000       0.323854         8.8125 
  15   0.0000       0.370548        10.0831 
  16   0.0000       0.370562        10.0835 
  17   0.0000       0.374379        10.1874 
  18   0.0000       0.375349        10.2138 
  19   0.0000       0.392870        10.6905 
  20   0.0000       0.392870        10.6905 
  21   0.0000       0.423027        11.5112 
  22   0.0000       0.423028        11.5112 
  23   0.0000       0.554605        15.0916 
  24   0.0000       0.555182        15.1073 
  25   0.0000       0.555182        15.1073 
  26   0.0000       0.579129        15.7589 
  27   0.0000       0.791121        21.5275 
  28   0.0000       0.806511        21.9463 
  29   0.0000       0.806515        21.9464 
  30   0.0000       0.901970        24.5439 
  31   0.0000       0.901974        24.5440 
  32   0.0000       1.026958        27.9450 
  33   0.0000       1.145226        31.1632 
  34   0.0000       1.145282        31.1647 
  35   0.0000       1.688747        45.9531 
  36   0.0000       1.713530        46.6275 
  37   0.0000       1.772720        48.2382 
  38   0.0000       1.772741        48.2387 
  39   0.0000       1.774146        48.2770 
  40   0.0000       1.942075        52.8465 
  41   0.0000       1.942102        52.8473 
  42   0.0000       2.180437        59.3327 
  43   0.0000       2.269967        61.7689 
  44   0.0000       2.334145        63.5153 
  45   0.0000       2.334233        63.5177 
  46   0.0000       2.556330        69.5613 
  47   0.0000       2.556418        69.5637 
  48   0.0000       2.740939        74.5847 
  49   0.0000       2.740950        74.5850 
  50   0.0000       2.895319        78.7856 
  51   0.0000       3.054944        83.1292 
  52   0.0000       3.211672        87.3940 
  53   0.0000       3.211691        87.3945 
  54   0.0000       3.320749        90.3622 
  55   0.0000       3.320801        90.3636 
  56   0.0000       3.477620        94.6308 
  57   0.0000       3.542463        96.3953 
  58   0.0000       3.683063       100.2212 
  59   0.0000       3.683118       100.2227 
  60   0.0000       4.427074       120.4668 
  61   0.0000       4.427162       120.4692 
  62   0.0000       4.591059       124.9291 
  63   0.0000      22.213700       604.4655 

                    ********************************
                    * MULLIKEN POPULATION ANALYSIS *
                    ********************************

--------------------------------------------
MULLIKEN ATOMIC CHARGES AND SPIN POPULATIONS
--------------------------------------------
   0 C :   -0.705459    0.883610
   1 H :    0.234888    0.038752
   2 H :    0.235286    0.038819
   3 H :    0.235286    0.038818
Sum of atomic charges         :   -0.0000000
Sum of atomic spin populations:    1.0000000

-----------------------------------------------------
MULLIKEN REDUCED ORBITAL CHARGES AND SPIN POPULATIONS
-----------------------------------------------------
CHARGE
  0 C s       :     3.375284  s :     3.375284
      pz      :     0.933489  p :     3.287873
      px      :     1.177077
      py      :     1.177307
      dz2     :     0.001694  d :     0.041193
      dxz     :     0.010799
      dyz     :     0.010819
      dx2y2   :     0.008929
      dxy     :     0.008953
      f0      :     0.000430  f :     0.001109
      f+1     :     0.000114
      f-1     :     0.000113
      f+2     :    -0.000105
      f-2     :    -0.000103
      f+3     :     0.000660
      f-3     :     0.000000
  1 H s       :     0.718147  s :     0.718147
      pz      :     0.022866  p :     0.046966
      px      :     0.021335
      py      :     0.002764
  2 H s       :     0.717865  s :     0.717865
      pz      :     0.022784  p :     0.046849
      px      :     0.007394
      py      :     0.016671
  3 H s       :     0.717867  s :     0.717867
      pz      :     0.022784  p :     0.046848
      px      :     0.007394
      py      :     0.016670

SPIN
  0 C s       :    -0.000655  s :    -0.000655
      pz      :     0.878803  p :     0.892455
      px      :     0.006850
      py      :     0.006802
      dz2     :    -0.001975  d :    -0.007220
      dxz     :    -0.002630
      dyz     :    -0.002632
      dx2y2   :     0.000012
      dxy     :     0.000004
      f0      :    -0.000345  f :    -0.000970
      f+1     :    -0.000224
      f-1     :    -0.000224
      f+2     :    -0.000016
      f-2     :    -0.000017
      f+3     :    -0.000144
      f-3     :    -0.000000
  1 H s       :     0.013401  s :     0.013401
      pz      :     0.020783  p :     0.025351
      px      :     0.001443
      py      :     0.003126
  2 H s       :     0.013536  s :     0.013536
      pz      :     0.020712  p :     0.025283
      px      :     0.002710
      py      :     0.001861
  3 H s       :     0.013536  s :     0.013536
      pz      :     0.020712  p :     0.025283
      px      :     0.002710
      py      :     0.001861


                     *******************************
                     * LOEWDIN POPULATION ANALYSIS *
                     *******************************

-------------------------------------------
LOEWDIN ATOMIC CHARGES AND SPIN POPULATIONS
-------------------------------------------
   0 C :    0.058603    0.833669
   1 H :   -0.019554    0.055453
   2 H :   -0.019524    0.055439
   3 H :   -0.019524    0.055439

----------------------------------------------------
LOEWDIN REDUCED ORBITAL CHARGES AND SPIN POPULATIONS
----------------------------------------------------
CHARGE
  0 C s       :     2.912404  s :     2.912404
      pz      :     0.776513  p :     2.901909
      px      :     1.062716
      py      :     1.062680
      dz2     :     0.007964  d :     0.116976
      dxz     :     0.017838
      dyz     :     0.017841
      dx2y2   :     0.036660
      dxy     :     0.036673
      f0      :     0.001155  f :     0.010108
      f+1     :     0.000336
      f-1     :     0.000335
      f+2     :     0.002602
      f-2     :     0.002604
      f+3     :     0.003078
      f-3     :     0.000000
  1 H s       :     0.758389  s :     0.758389
      pz      :     0.068305  p :     0.261165
      px      :     0.122889
      py      :     0.069972
  2 H s       :     0.758380  s :     0.758380
      pz      :     0.068288  p :     0.261145
      px      :     0.083188
      py      :     0.109668
  3 H s       :     0.758380  s :     0.758380
      pz      :     0.068288  p :     0.261145
      px      :     0.083188
      py      :     0.109668

SPIN
  0 C s       :     0.074179  s :     0.074179
      pz      :     0.733960  p :     0.768051
      px      :     0.017034
      py      :     0.017057
      dz2     :     0.000144  d :    -0.007924
      dxz     :    -0.002206
      dyz     :    -0.002205
      dx2y2   :    -0.001823
      dxy     :    -0.001833
      f0      :    -0.000226  f :    -0.000637
      f+1     :    -0.000177
      f-1     :    -0.000177
      f+2     :    -0.000131
      f-2     :    -0.000131
      f+3     :     0.000205
      f-3     :    -0.000000
  1 H s       :    -0.005830  s :    -0.005830
      pz      :     0.058790  p :     0.061282
      px      :     0.003159
      py      :    -0.000666
  2 H s       :    -0.005831  s :    -0.005831
      pz      :     0.058778  p :     0.061270
      px      :     0.000294
      py      :     0.002197
  3 H s       :    -0.005831  s :    -0.005831
      pz      :     0.058778  p :     0.061270
      px      :     0.000294
      py      :     0.002197


                      *****************************
                      * MAYER POPULATION ANALYSIS *
                      *****************************

  NA   - Mulliken gross atomic population
  ZA   - Total nuclear charge
  QA   - Mulliken gross atomic charge
  VA   - Mayer's total valence
  BVA  - Mayer's bonded valence
  FA   - Mayer's free valence

  ATOM       NA         ZA         QA         VA         BVA        FA
  0 C      6.7055     6.0000    -0.7055     3.7825     2.9706     0.8119
  1 H      0.7651     1.0000     0.2349     1.0109     1.0095     0.0014
  2 H      0.7647     1.0000     0.2353     1.0104     1.0090     0.0014
  3 H      0.7647     1.0000     0.2353     1.0103     1.0090     0.0014

  Mayer bond orders larger than 0.100000
B(  0-C ,  1-H ) :   0.9906 B(  0-C ,  2-H ) :   0.9900 B(  0-C ,  3-H ) :   0.9900 


-------
TIMINGS
-------

Total SCF time: 0 days 0 hours 0 min 7 sec 

Total time                  ....       7.500 sec
Sum of individual times     ....       6.884 sec  ( 91.8%)

Fock matrix formation       ....       5.751 sec  ( 76.7%)
  Split-RI-J                ....       0.814 sec  ( 14.2% of F)
  Chain of spheres X        ....       1.321 sec  ( 23.0% of F)
  XC integration            ....       1.156 sec  ( 20.1% of F)
    Basis function eval.    ....       0.051 sec  (  4.4% of XC)
    Density eval.           ....       0.052 sec  (  4.5% of XC)
    XC-Functional eval.     ....       0.053 sec  (  4.6% of XC)
    XC-Potential eval.      ....       0.076 sec  (  6.6% of XC)
Diagonalization             ....       0.182 sec  (  2.4%)
Density matrix formation    ....       0.010 sec  (  0.1%)
Population analysis         ....       0.128 sec  (  1.7%)
Initial guess               ....       0.094 sec  (  1.3%)
Orbital Transformation      ....       0.000 sec  (  0.0%)
Orbital Orthonormalization  ....       0.000 sec  (  0.0%)
DIIS solution               ....       0.325 sec  (  4.3%)
Grid generation             ....       0.394 sec  (  5.2%)

Maximum memory used throughout the entire SCF-calculation: 58.5 MB


-------------------------------------------------------------------------------
                          DFT DISPERSION CORRECTION                            
                                                                               
                              DFTD3 V3.1  Rev 1                                
                              USING zero damping                               
-------------------------------------------------------------------------------
The omegaB97X-D3 functional is recognized. Fit by Chai et al.
Active option DFTDOPT                   ...         3   

molecular C6(AA) [au] = 106.960783 


            DFT-D V3
 parameters
 s6 scaling factor         :     1.0000 
 rs6 scaling factor        :     1.2810 
 s8 scaling factor         :     1.0000 
 rs8 scaling factor        :     1.0940 
 Damping factor alpha6     :    14.0000 
 Damping factor alpha8     :    16.0000 
 ad hoc parameters k1-k3   :    16.0000     1.3333    -4.0000 

 Edisp/kcal,au: -0.007104310152  -0.000011321438 
 E6   /kcal   :  -0.001106896 
 E8   /kcal   :  -0.005997414 
 % E8         :  84.419374334 

-------------------------   ----------------
Dispersion correction           -0.000011321
-------------------------   ----------------


-------------------------   --------------------
FINAL SINGLE POINT ENERGY       -39.827433941958
-------------------------   --------------------



           ************************************************************
           *        Program running with 18 parallel MPI-processes    *
           *              working on a common directory               *
           ************************************************************
------------------------------------------------------------------------------
                         ORCA SCF GRADIENT CALCULATION
------------------------------------------------------------------------------

 ... reading COSX grid (gridx3)
Gradient of the Kohn-Sham DFT energy:
Kohn-Sham wavefunction type      ... UKS
Hartree-Fock exchange scaling    ...    0.196
Number of operators              ...    2
Number of atoms                  ...    4
Basis set dimensions             ...   64
Integral neglect threshold       ... 2.5e-11
Integral primitive cutoff        ... 2.5e-12
SHARK Integral package           ... ON

Nuc. rep. gradient       (SHARK) ... done (  0.0 sec)
HCore & Overlap gradient (SHARK) ... done (  0.0 sec)
RI-J gradient            (SHARK) ... done (  0.1 sec)
COSX-gradient                    ... done (  0.1 sec)
Exchange-correlation gradient    ... done
Dispersion correction            ... done

------------------
CARTESIAN GRADIENT
------------------

WARNING: THERE ARE 3 CONSTRAINED CARTESIAN COORDINATES
   1   C   :    0.000068809    0.000000024    0.038282398
   2   H   :   -0.011682365    0.000000000   -0.012760833
   3   H   :    0.005802861   -0.010170446   -0.012775394
   4   H   :    0.005802864    0.010170456   -0.012775426

Difference to translation invariance:
           :   -0.0000078318    0.0000000345   -0.0000292564

Difference to rotation invariance:
           :    0.0000000603    0.0000253722   -0.0000000044

Norm of the cartesian gradient     ...    0.0486364884
RMS gradient                       ...    0.0140401448
MAX gradient                       ...    0.0382823976

-------
TIMINGS
-------

Total SCF gradient time            ...        0.586 sec

One electron gradient       ....       0.007 sec  (  1.2%)
RI-J Coulomb gradient       ....       0.112 sec  ( 19.1%)
COSX gradient               ....       0.119 sec  ( 20.3%)
XC gradient                 ....       0.065 sec  ( 11.0%)

Maximum memory used throughout the entire SCFGRAD-calculation: 33.6 MB
------------------------------------------------------------------------------
                         ORCA GEOMETRY RELAXATION STEP
------------------------------------------------------------------------------

Reading the OPT-File                    .... done
Getting information on internals        .... done
Copying old internal coords+grads       .... done
Making the new internal coordinates     .... (new redundants).... done
Validating the new internal coordinates .... (new redundants).... done
Calculating the B-matrix                .... done
Calculating the G,G- and P matrices     .... done
Transforming gradient to internals      .... done
Projecting the internal gradient        .... done
Number of atoms                         ....   4
Number of internal coordinates          ....   7
Current Energy                          ....   -39.827433942 Eh
Current gradient norm                   ....     0.048636488 Eh/bohr
Maximum allowed component of the step   ....  0.300
Current trust radius                    ....  0.300
Evaluating the initial hessian          ....  (Almloef) done
Projecting the Hessian                  .... done
Forming the augmented Hessian           .... done
Diagonalizing the augmented Hessian     .... done
Last element of RFO vector              ....  0.999526407
Lowest eigenvalues of augmented Hessian:
 -0.000354432  0.373574723  0.373574723  0.373929155 1000.000000000
Length of the computed step             ....  0.030787311
The final length of the internal step   ....  0.030787311
Converting the step to cartesian space:
 Initial RMS(Int)=    0.0116365099
Transforming coordinates:
 Iter   0:  RMS(Cart)=    0.0084911207 RMS(Int)=    0.0116365099
 Iter   1:  RMS(Cart)=    0.0000000000 RMS(Int)=    0.0000000001
Imposing constraints:
 Iter   0:  RMS(Cart)=    0.0000000011 RMS(Int)=    0.0000000031
CONVERGED
done
Storing new coordinates                 .... done

                                .--------------------.
          ----------------------|Geometry convergence|-------------------------
          Item                value                   Tolerance       Converged
          ---------------------------------------------------------------------
          RMS gradient        0.0043512303            0.0001000000      NO
          MAX gradient        0.0066534275            0.0003000000      NO
          RMS step            0.0116365099            0.0020000000      NO
          MAX step            0.0177932836            0.0040000000      NO
          ........................................................
          Max(Bonds)      0.0094      Max(Angles)    0.00
          Max(Dihed)        0.00      Max(Improp)    0.00
          ---------------------------------------------------------------------

The optimization has not yet converged - more geometry cycles are needed


    ---------------------------------------------------------------------------
                         Redundant Internal Coordinates
                            (Angstroem and degrees)

        Definition                    Value    dE/dq     Step     New-Value
    ----------------------------------------------------------------------------
     1. B(H   1,C   0)                1.0800 -0.006633  0.0094    1.0894   
     2. B(H   2,C   0)                1.0800 -0.006653  0.0094    1.0894   
     3. B(H   3,C   0)                1.0800 -0.006653  0.0094    1.0894   
     4. A(H   2,C   0,H   3)          109.00 -0.020412    0.00    109.00 C 
     5. A(H   1,C   0,H   2)          109.00 -0.007674    0.00    109.00 C 
     6. A(H   1,C   0,H   3)          109.00 -0.007674    0.00    109.00 C 
     7. I(H   1,H   3,H   2,C   0)     55.90  0.024778   -0.00     55.90   
    ----------------------------------------------------------------------------

         *************************************************************
         *                GEOMETRY OPTIMIZATION CYCLE   2            *
         *************************************************************
---------------------------------
CARTESIAN COORDINATES (ANGSTROEM)
---------------------------------
  C      0.000008   -0.000000    0.002406
  H      1.024095   -0.000000   -0.369091
  H     -0.512052    0.886910   -0.369094
  H     -0.512052   -0.886910   -0.369094

----------------------------
CARTESIAN COORDINATES (A.U.)
----------------------------
  NO LB      ZA    FRAG     MASS         X           Y           Z
   0 C     6.0000    0    12.011    0.000015   -0.000000    0.004546
   1 H     1.0000    0     1.008    1.935259   -0.000000   -0.697481
   2 H     1.0000    0     1.008   -0.967637    1.676018   -0.697486
   3 H     1.0000    0     1.008   -0.967637   -1.676018   -0.697486

--------------------------------
INTERNAL COORDINATES (ANGSTROEM)
--------------------------------
 C      0   0   0     0.000000000000     0.00000000     0.00000000
 H      1   0   0     1.089386856534     0.00000000     0.00000000
 H      1   2   0     1.089415800143   108.99999994     0.00000000
 H      1   2   3     1.089415787377   108.99999994   118.86382262

---------------------------
INTERNAL COORDINATES (A.U.)
---------------------------
 C      0   0   0     0.000000000000     0.00000000     0.00000000
 H      1   0   0     2.058642812742     0.00000000     0.00000000
 H      1   2   0     2.058697508237   108.99999994     0.00000000
 H      1   2   3     2.058697484113   108.99999994   118.86382262



           ************************************************************
           *        Program running with 18 parallel MPI-processes    *
           *              working on a common directory               *
           ************************************************************
------------------------------------------------------------------------------
                   ___                                                        
                  /   \      - P O W E R E D   B Y -                         
                 /     \                                                     
                 |  |  |   _    _      __       _____    __    __             
                 |  |  |  | |  | |    /  \     |  _  \  |  |  /  |          
                  \  \/   | |  | |   /    \    | | | |  |  | /  /          
                 / \  \   | |__| |  /  /\  \   | |_| |  |  |/  /          
                |  |  |   |  __  | /  /__\  \  |    /   |      \           
                |  |  |   | |  | | |   __   |  |    \   |  |\   \          
                \     /   | |  | | |  |  |  |  | |\  \  |  | \   \       
                 \___/    |_|  |_| |__|  |__|  |_| \__\ |__|  \__/        
                                                                              
                      - O R C A' S   B I G   F R I E N D -                    
                                      &                                       
                       - I N T E G R A L  F E E D E R -                       
                                                                              
 v1 FN, 2020, v2 2021                                                         
------------------------------------------------------------------------------


Reading SHARK input file /beegfs/scratch/ispackman/PFAS_EPR_calcs/benchmark/JChemEd_CF3_radical/CH3_radical_109.0_degrees_IN-PROGRESS/CH3_radical_109.0_degrees.SHARKINP.tmp ... ok
----------------------
SHARK INTEGRAL PACKAGE
----------------------

Number of atoms                             ...      4
Number of basis functions                   ...     64
Number of shells                            ...     28
Maximum angular momentum                    ...      3
Integral batch strategy                     ... SHARK/LIBINT Hybrid
RI-J (if used) integral strategy            ... SPLIT-RIJ (Revised 2003 algorithm where possible)
Printlevel                                  ...      1
Contraction scheme used                     ... SEGMENTED contraction
Coulomb Range Separation                    ... NOT USED
Exchange Range Separation                   ... Long Range
   Mu parameter                             ...  0.250000
   Scaling (regular/separated)              ...  0.195728  0.804272
Finite Nucleus Model                        ... NOT USED
Auxiliary Coulomb fitting basis             ... AVAILABLE
   # of basis functions in Aux-J            ...     82
   # of shells in Aux-J                     ...     30
   Maximum angular momentum in Aux-J        ...      4
Auxiliary J/K fitting basis                 ... NOT available
Auxiliary Correlation fitting basis         ... NOT available
Auxiliary 'external' fitting basis          ... NOT available
Integral threshold                          ...     2.500000e-11
Primitive cut-off                           ...     2.500000e-12
Primitive pair pre-selection threshold      ...     2.500000e-12

Calculating pre-screening integrals         ... done (  0.0 sec) Dimension = 28
Organizing shell pair data                  ... done (  0.0 sec)
Shell pair information
Total number of shell pairs                 ...       406
Shell pairs after pre-screening             ...       406
Total number of primitive shell pairs       ...       977
Primitive shell pairs kept                  ...       944
          la=0 lb=0:    120 shell pairs
          la=1 lb=0:    135 shell pairs
          la=1 lb=1:     45 shell pairs
          la=2 lb=0:     45 shell pairs
          la=2 lb=1:     27 shell pairs
          la=2 lb=2:      6 shell pairs
          la=3 lb=0:     15 shell pairs
          la=3 lb=1:      9 shell pairs
          la=3 lb=2:      3 shell pairs
          la=3 lb=3:      1 shell pairs

Calculating one electron integrals          ... done (  0.0 sec)
Calculating RI/J V-Matrix + Cholesky decomp.... done (  0.0 sec)
Calculating Nuclear repulsion               ... done (  0.0 sec) ENN=      9.638456400490 Eh

SHARK setup successfully completed in   0.3 seconds

Maximum memory used throughout the entire GTOINT-calculation: 14.0 MB


           ************************************************************
           *        Program running with 18 parallel MPI-processes    *
           *              working on a common directory               *
           ************************************************************

Diagonalization of the overlap matrix:
Smallest eigenvalue                        ... 5.485e-05
Time for diagonalization                   ...    0.002 sec
Threshold for overlap eigenvalues          ... 1.000e-08
Number of eigenvalues below threshold      ... 0
Time for construction of square roots      ...    0.020 sec
Total time needed                          ...    0.023 sec

-------------------
DFT GRID GENERATION
-------------------

General Integration Accuracy     IntAcc      ... 4.388
Radial Grid Type                 RadialGrid  ... OptM3 with GC (2021)
Angular Grid (max. ang.)         AngularGrid ... 4 (Lebedev-302)
Angular grid pruning method      GridPruning ... 4 (adaptive)
Weight generation scheme         WeightScheme... Becke
Basis function cutoff            BFCut       ... 1.0000e-11
Integration weight cutoff        WCut        ... 1.0000e-14
Angular grids for H and He will be reduced by one unit
Partially contracted basis set               ... off
Rotationally invariant grid construction     ... off

Total number of grid points                  ...    17050
Total number of batches                      ...      269
Average number of points per batch           ...       63
Average number of grid points per atom       ...     4262
Time for grid setup =    0.099 sec

--------------------
COSX GRID GENERATION
--------------------

GRIDX 1
-------
General Integration Accuracy     IntAcc      ... 3.816
Radial Grid Type                 RadialGrid  ... OptM3 with GC (2021)
Angular Grid (max. ang.)         AngularGrid ... 1 (Lebedev-50)
Angular grid pruning method      GridPruning ... 4 (adaptive)
Weight generation scheme         WeightScheme... Becke
Basis function cutoff            BFCut       ... 1.0000e-11
Integration weight cutoff        WCut        ... 1.0000e-14
Angular grids for H and He will be reduced by one unit
Partially contracted basis set               ... on
Rotationally invariant grid construction     ... off

Total number of grid points                  ...     2151
Total number of batches                      ...       36
Average number of points per batch           ...       59
Average number of grid points per atom       ...      538
UseSFitting                                  ... on

GRIDX 2
-------
General Integration Accuracy     IntAcc      ... 4.020
Radial Grid Type                 RadialGrid  ... OptM3 with GC (2021)
Angular Grid (max. ang.)         AngularGrid ... 2 (Lebedev-110)
Angular grid pruning method      GridPruning ... 4 (adaptive)
Weight generation scheme         WeightScheme... Becke
Basis function cutoff            BFCut       ... 1.0000e-11
Integration weight cutoff        WCut        ... 1.0000e-14
Angular grids for H and He will be reduced by one unit
Partially contracted basis set               ... on
Rotationally invariant grid construction     ... off

Total number of grid points                  ...     5052
Total number of batches                      ...       81
Average number of points per batch           ...       62
Average number of grid points per atom       ...     1263
UseSFitting                                  ... on

GRIDX 3
-------
General Integration Accuracy     IntAcc      ... 4.338
Radial Grid Type                 RadialGrid  ... OptM3 with GC (2021)
Angular Grid (max. ang.)         AngularGrid ... 3 (Lebedev-194)
Angular grid pruning method      GridPruning ... 4 (adaptive)
Weight generation scheme         WeightScheme... Becke
Basis function cutoff            BFCut       ... 1.0000e-11
Integration weight cutoff        WCut        ... 1.0000e-14
Angular grids for H and He will be reduced by one unit
Partially contracted basis set               ... on
Rotationally invariant grid construction     ... off

Total number of grid points                  ...    11725
Total number of batches                      ...      185
Average number of points per batch           ...       63
Average number of grid points per atom       ...     2931
UseSFitting                                  ... on

Time for X-Grid setup             =    0.238 sec

--------------
SCF ITERATIONS
--------------
ITER       Energy         Delta-E        Max-DP      RMS-DP      [F,P]     Damp
               ***  Starting incremental Fock matrix formation  ***
  0    -39.8275447623   0.000000000000 0.00337196  0.00006457  0.0024161 0.7000
  1    -39.8275610410  -0.000016278723 0.00298048  0.00005601  0.0016435 0.7000
                               ***Turning on DIIS***
  2    -39.8275719515  -0.000010910494 0.00785670  0.00014556  0.0010888 0.0000
  3    -39.8275960046  -0.000024053054 0.00224384  0.00004161  0.0004888 0.0000
               *** Restarting incremental Fock matrix formation ***
                                   *** Resetting DIIS ***
  4    -39.8275971232  -0.000001118676 0.00021837  0.00000794  0.0002041 0.0000
  5    -39.8275973130  -0.000000189767 0.00022130  0.00000457  0.0001285 0.0000
  6    -39.8275973881  -0.000000075066 0.00004536  0.00000190  0.0000234 0.0000
                 **** Energy Check signals convergence ****

               *****************************************************
               *                     SUCCESS                       *
               *           SCF CONVERGED AFTER   7 CYCLES          *
               *****************************************************

Old exchange energy                            =     -2.171333194 Eh
New exchange energy                            =     -2.171338500 Eh
Exchange energy change after final integration =     -0.000005305 Eh
Total energy after final integration           =    -39.827602701 Eh
Final COS-X integration done in                =     0.118 sec
Total Energy       :          -39.82760270 Eh           -1083.76417 eV
  Last Energy change         ...   -7.5236e-09  Tolerance :   1.0000e-08
  Last MAX-Density change    ...    0.0000e+00  Tolerance :   1.0000e-07
             **** THE GBW FILE WAS UPDATED (/beegfs/scratch/ispackman/PFAS_EPR_calcs/benchmark/JChemEd_CF3_radical/CH3_radical_109.0_degrees_IN-PROGRESS/CH3_radical_109.0_degrees.gbw) ****
             **** DENSITY /beegfs/scratch/ispackman/PFAS_EPR_calcs/benchmark/JChemEd_CF3_radical/CH3_radical_109.0_degrees_IN-PROGRESS/CH3_radical_109.0_degrees.scfp WAS UPDATED ****
             **** ENERGY FILE WAS UPDATED (/beegfs/scratch/ispackman/PFAS_EPR_calcs/benchmark/JChemEd_CF3_radical/CH3_radical_109.0_degrees_IN-PROGRESS/CH3_radical_109.0_degrees.en.tmp) ****
----------------------
UHF SPIN CONTAMINATION
----------------------

Warning: in a DFT calculation there is little theoretical justification to 
         calculate <S**2> as in Hartree-Fock theory. We will do it anyways
         but you should keep in mind that the values have only limited relevance

Expectation value of <S**2>     :     0.753044
Ideal value S*(S+1) for S=0.5   :     0.750000
Deviation                       :     0.003044

             **** THE GBW FILE WAS UPDATED (/beegfs/scratch/ispackman/PFAS_EPR_calcs/benchmark/JChemEd_CF3_radical/CH3_radical_109.0_degrees_IN-PROGRESS/CH3_radical_109.0_degrees.gbw) ****
             **** DENSITY /beegfs/scratch/ispackman/PFAS_EPR_calcs/benchmark/JChemEd_CF3_radical/CH3_radical_109.0_degrees_IN-PROGRESS/CH3_radical_109.0_degrees.scfp WAS UPDATED ****
Total SCF time: 0 days 0 hours 0 min 4 sec 

Maximum memory used throughout the entire SCF-calculation: 58.5 MB


-------------------------------------------------------------------------------
                          DFT DISPERSION CORRECTION                            
                                                                               
                              DFTD3 V3.1  Rev 1                                
                              USING zero damping                               
-------------------------------------------------------------------------------
-------------------------   ----------------
Dispersion correction           -0.000012135
-------------------------   ----------------


-------------------------   --------------------
FINAL SINGLE POINT ENERGY       -39.827614835868
-------------------------   --------------------



           ************************************************************
           *        Program running with 18 parallel MPI-processes    *
           *              working on a common directory               *
           ************************************************************
------------------------------------------------------------------------------
                         ORCA SCF GRADIENT CALCULATION
------------------------------------------------------------------------------

 ... reading COSX grid (gridx3)
Gradient of the Kohn-Sham DFT energy:
Kohn-Sham wavefunction type      ... UKS
Hartree-Fock exchange scaling    ...    0.196
Number of operators              ...    2
Number of atoms                  ...    4
Basis set dimensions             ...   64
Integral neglect threshold       ... 2.5e-11
Integral primitive cutoff        ... 2.5e-12
SHARK Integral package           ... ON

Nuc. rep. gradient       (SHARK) ... done (  0.0 sec)
HCore & Overlap gradient (SHARK) ... done (  0.0 sec)
RI-J gradient            (SHARK) ... done (  0.1 sec)
COSX-gradient                    ... done (  0.1 sec)
Exchange-correlation gradient    ... done
Dispersion correction            ... done

------------------
CARTESIAN GRADIENT
------------------

WARNING: THERE ARE 3 CONSTRAINED CARTESIAN COORDINATES
   1   C   :    0.000090220   -0.000000024    0.043672742
   2   H   :   -0.005484335    0.000000018   -0.014556124
   3   H   :    0.002692644   -0.004782220   -0.014574883
   4   H   :    0.002692640    0.004782228   -0.014574879

Difference to translation invariance:
           :   -0.0000088307    0.0000000025   -0.0000331432

Difference to rotation invariance:
           :    0.0000000107    0.0000322791    0.0000000202

Norm of the cartesian gradient     ...    0.0513261095
RMS gradient                       ...    0.0148165716
MAX gradient                       ...    0.0436727423

-------
TIMINGS
-------

Total SCF gradient time            ...        0.610 sec

One electron gradient       ....       0.006 sec  (  1.0%)
RI-J Coulomb gradient       ....       0.144 sec  ( 23.7%)
COSX gradient               ....       0.120 sec  ( 19.7%)
XC gradient                 ....       0.055 sec  (  9.0%)

Maximum memory used throughout the entire SCFGRAD-calculation: 33.6 MB
------------------------------------------------------------------------------
                         ORCA GEOMETRY RELAXATION STEP
------------------------------------------------------------------------------

Reading the OPT-File                    .... done
Getting information on internals        .... done
Copying old internal coords+grads       .... done
Making the new internal coordinates     .... (new redundants).... done
Validating the new internal coordinates .... (new redundants).... done
Calculating the B-matrix                .... done
Calculating the G,G- and P matrices     .... done
Transforming gradient to internals      .... done
Projecting the internal gradient        .... done
Number of atoms                         ....   4
Number of internal coordinates          ....   7
Current Energy                          ....   -39.827614836 Eh
Current gradient norm                   ....     0.051326110 Eh/bohr
Maximum allowed component of the step   ....  0.300
Current trust radius                    ....  0.300
Updating the Hessian (BFGS)             .... done
Forming the augmented Hessian           .... done
Diagonalizing the augmented Hessian     .... done
Last element of RFO vector              ....  0.999999578
Lowest eigenvalues of augmented Hessian:
 -0.000000306  0.363094308  0.373574723  0.373575772 999.999999933
Length of the computed step             ....  0.000918684
The final length of the internal step   ....  0.000918684
Converting the step to cartesian space:
 Initial RMS(Int)=    0.0003472300
Transforming coordinates:
 Iter   0:  RMS(Cart)=    0.0002533698 RMS(Int)=    0.0003472300
 Iter   1:  RMS(Cart)=    0.0000000000 RMS(Int)=    0.0000000000
Imposing constraints:
 Iter   0:  RMS(Cart)=    0.0000000006 RMS(Int)=    0.0000000021
CONVERGED
done
Storing new coordinates                 .... done

                                .--------------------.
          ----------------------|Geometry convergence|-------------------------
          Item                value                   Tolerance       Converged
          ---------------------------------------------------------------------
          Energy change      -0.0001808939            0.0000050000      NO
          RMS gradient        0.0001260772            0.0001000000      NO
          MAX gradient        0.0001947837            0.0003000000      YES
          RMS step            0.0003472300            0.0020000000      YES
          MAX step            0.0005364615            0.0040000000      YES
          ........................................................
          Max(Bonds)      0.0003      Max(Angles)    0.00
          Max(Dihed)        0.00      Max(Improp)    0.00
          ---------------------------------------------------------------------

       The step convergence is overachieved with 
       reasonable convergence on the gradient
       Convergence will therefore be signaled now


                    ***********************HURRAY********************
                    ***        THE OPTIMIZATION HAS CONVERGED     ***
                    *************************************************


    ---------------------------------------------------------------------------
                         Redundant Internal Coordinates

                          --- Optimized Parameters ---  
                            (Angstroem and degrees)

        Definition                    OldVal   dE/dq     Step     FinalVal
    ----------------------------------------------------------------------------
     1. B(H   1,C   0)                1.0894 -0.000195  0.0003    1.0897   
     2. B(H   2,C   0)                1.0894 -0.000191  0.0003    1.0897   
     3. B(H   3,C   0)                1.0894 -0.000191  0.0003    1.0897   
     4. A(H   2,C   0,H   3)          109.00 -0.020038   -0.00    109.00 C 
     5. A(H   1,C   0,H   2)          109.00 -0.007533   -0.00    109.00 C 
     6. A(H   1,C   0,H   3)          109.00 -0.007533   -0.00    109.00 C 
     7. I(H   1,H   3,H   2,C   0)     55.90  0.024322    0.00     55.90   
    ----------------------------------------------------------------------------
                 *******************************************************
                 *** FINAL ENERGY EVALUATION AT THE STATIONARY POINT ***
                 ***               (AFTER    2 CYCLES)               ***
                 *******************************************************
---------------------------------
CARTESIAN COORDINATES (ANGSTROEM)
---------------------------------
  C      0.000007   -0.000000    0.002477
  H      1.024361   -0.000000   -0.369115
  H     -0.512184    0.887137   -0.369118
  H     -0.512184   -0.887137   -0.369118

----------------------------
CARTESIAN COORDINATES (A.U.)
----------------------------
  NO LB      ZA    FRAG     MASS         X           Y           Z
   0 C     6.0000    0    12.011    0.000013   -0.000000    0.004682
   1 H     1.0000    0     1.008    1.935761   -0.000000   -0.697526
   2 H     1.0000    0     1.008   -0.967887    1.676447   -0.697531
   3 H     1.0000    0     1.008   -0.967887   -1.676447   -0.697531

--------------------------------
INTERNAL COORDINATES (ANGSTROEM)
--------------------------------
 C      0   0   0     0.000000000000     0.00000000     0.00000000
 H      1   0   0     1.089670739756     0.00000000     0.00000000
 H      1   2   0     1.089694855409   108.99999987     0.00000000
 H      1   2   3     1.089694852213   108.99999987   118.86382250

---------------------------
INTERNAL COORDINATES (A.U.)
---------------------------
 C      0   0   0     0.000000000000     0.00000000     0.00000000
 H      1   0   0     2.059179274287     0.00000000     0.00000000
 H      1   2   0     2.059224846266   108.99999987     0.00000000
 H      1   2   3     2.059224840226   108.99999987   118.86382250

---------------------
BASIS SET INFORMATION
---------------------
There are 2 groups of distinct atoms

 Group   1 Type C   : 12s6p3d1f contracted to 6s3p3d1f pattern {621111/411/111/1}
 Group   2 Type H   : 5s2p contracted to 3s2p pattern {311/11}

Atom   0C    basis set group =>   1
Atom   1H    basis set group =>   2
Atom   2H    basis set group =>   2
Atom   3H    basis set group =>   2
---------------------------------
AUXILIARY/J BASIS SET INFORMATION
---------------------------------
There are 2 groups of distinct atoms

 Group   1 Type C   : 12s5p4d2f1g contracted to 6s4p3d1f1g pattern {711111/2111/211/2/1}
 Group   2 Type H   : 5s2p1d contracted to 3s1p1d pattern {311/2/1}

Atom   0C    basis set group =>   1
Atom   1H    basis set group =>   2
Atom   2H    basis set group =>   2
[...]

  NA   - Mulliken gross atomic population
  ZA   - Total nuclear charge
  QA   - Mulliken gross atomic charge
  VA   - Mayer's total valence
  BVA  - Mayer's bonded valence
  FA   - Mayer's free valence

  ATOM       NA         ZA         QA         VA         BVA        FA
  0 C      6.6966     6.0000    -0.6966     3.7858     2.9701     0.8157
  1 H      0.7681     1.0000     0.2319     1.0130     1.0117     0.0013
  2 H      0.7677     1.0000     0.2323     1.0125     1.0112     0.0013
  3 H      0.7677     1.0000     0.2323     1.0125     1.0112     0.0013

  Mayer bond orders larger than 0.100000
B(  0-C ,  1-H ) :   0.9904 B(  0-C ,  2-H ) :   0.9898 B(  0-C ,  3-H ) :   0.9899 


-------
TIMINGS
-------

Total SCF time: 0 days 0 hours 0 min 4 sec 

Total time                  ....       4.850 sec
Sum of individual times     ....       4.271 sec  ( 88.1%)

Fock matrix formation       ....       3.525 sec  ( 72.7%)
  Split-RI-J                ....       0.507 sec  ( 14.4% of F)
  Chain of spheres X        ....       0.906 sec  ( 25.7% of F)
  XC integration            ....       0.713 sec  ( 20.2% of F)
    Basis function eval.    ....       0.030 sec  (  4.1% of XC)
    Density eval.           ....       0.029 sec  (  4.1% of XC)
    XC-Functional eval.     ....       0.031 sec  (  4.3% of XC)
    XC-Potential eval.      ....       0.039 sec  (  5.5% of XC)
Diagonalization             ....       0.094 sec  (  1.9%)
Density matrix formation    ....       0.010 sec  (  0.2%)
Population analysis         ....       0.139 sec  (  2.9%)
Initial guess               ....       0.005 sec  (  0.1%)
Orbital Transformation      ....       0.000 sec  (  0.0%)
Orbital Orthonormalization  ....       0.002 sec  (  0.0%)
DIIS solution               ....       0.133 sec  (  2.7%)
Grid generation             ....       0.364 sec  (  7.5%)

Maximum memory used throughout the entire SCF-calculation: 58.5 MB


-------------------------------------------------------------------------------
                          DFT DISPERSION CORRECTION                            
                                                                               
                              DFTD3 V3.1  Rev 1                                
                              USING zero damping                               
-------------------------------------------------------------------------------
The omegaB97X-D3 functional is recognized. Fit by Chai et al.
Active option DFTDOPT                   ...         3   

molecular C6(AA) [au] = 106.983803 


            DFT-D V3
 parameters
 s6 scaling factor         :     1.0000 
 rs6 scaling factor        :     1.2810 
 s8 scaling factor         :     1.0000 
 rs8 scaling factor        :     1.0940 
 Damping factor alpha6     :    14.0000 
 Damping factor alpha8     :    16.0000 
 ad hoc parameters k1-k3   :    16.0000     1.3333    -4.0000 

 Edisp/kcal,au: -0.007630574139  -0.000012160093 
 E6   /kcal   :  -0.001189048 
 E8   /kcal   :  -0.006441527 
 % E8         :  84.417325428 

-------------------------   ----------------
Dispersion correction           -0.000012160
-------------------------   ----------------


-------------------------   --------------------
FINAL SINGLE POINT ENERGY       -39.827614995500
-------------------------   --------------------

                                *** OPTIMIZATION RUN DONE ***

                            ***************************************
                            *     ORCA property calculations      *
                            ***************************************

                                    ---------------------
                                    Active property flags
                                    ---------------------
   (+) Dipole Moment


------------------------------------------------------------------------------
                       ORCA ELECTRIC PROPERTIES CALCULATION
------------------------------------------------------------------------------

Dipole Moment Calculation                       ... on
Quadrupole Moment Calculation                   ... off
Polarizability Calculation                      ... off
GBWName                                         ... /beegfs/scratch/ispackman/PFAS_EPR_calcs/benchmark/JChemEd_CF3_radical/CH3_radical_109.0_degrees_IN-PROGRESS/CH3_radical_109.0_degrees.gbw
Electron density                                ... /beegfs/scratch/ispackman/PFAS_EPR_calcs/benchmark/JChemEd_CF3_radical/CH3_radical_109.0_degrees_IN-PROGRESS/CH3_radical_109.0_degrees.scfp
The origin for moment calculation is the CENTER OF MASS  = ( 0.000009, -0.000000 -0.136554)

-------------
DIPOLE MOMENT
-------------
                                X             Y             Z
Electronic contribution:      0.00015      -0.00000       0.58378
Nuclear contribution   :     -0.00002       0.00000      -0.83551
                        -----------------------------------------
Total Dipole Moment    :      0.00013      -0.00000      -0.25173
                        -----------------------------------------
Magnitude (a.u.)       :      0.25173
Magnitude (Debye)      :      0.63985



--------------------
Rotational spectrum 
--------------------
 
Rotational constants in cm-1:     8.779348     8.779134     5.312524 
Rotational constants in MHz : 263198.226698 263191.810312 159265.468029 

 Dipole components along the rotational axes: 
x,y,z [a.u.] :    -0.000000    -0.000123    -0.251729 
x,y,z [Debye]:    -0.000000    -0.000313    -0.639845 

 


           ************************************************************
           *        Program running with 18 parallel MPI-processes    *
           *              working on a common directory               *
           ************************************************************

-------------------------------------------------------------------------------
                               ORCA SCF HESSIAN
-------------------------------------------------------------------------------

                   --------- SHARK INITIALIZATION DONE ---------

Hessian of the Kohn-Sham DFT energy:
Kohn-Sham wavefunction type                      ... UKS
Hartree-Fock exchange scaling                    ...    0.196
Number of operators                              ...    2
Number of atoms                                  ...    4
Basis set dimensions                             ...   64
Integral neglect threshold                       ... 2.5e-11
Integral primitive cutoff                        ... 2.5e-12

Setting up DFT Hessian calculations              ... 

HESS GRID
---------

General Integration Accuracy     IntAcc      ... 4.629
Radial Grid Type                 RadialGrid  ... OptM3 with GC (2021)
Angular Grid (max. ang.)         AngularGrid ... 5 (Lebedev-434)
Angular grid pruning method      GridPruning ... 4 (adaptive)
Weight generation scheme         WeightScheme... Becke
Basis function cutoff            BFCut       ... 1.0000e-11
Integration weight cutoff        WCut        ... 1.0000e-14
Angular grids for H and He will be reduced by one unit
Partially contracted basis set               ... off
Rotationally invariant grid construction     ... off

Total number of grid points                  ...    27258
Total number of batches                      ...      428
Average number of points per batch           ...       63
Average number of grid points per atom       ...     6814

Building densities                               ... done   (      0.0 sec)
Calculating rho(r) on the grid                   ... done   (      0.1 sec)
Building xc-kernel on the grid                   ... done   (      0.1 sec)
                                                     done   (      0.4 sec)

Nuclear repulsion Hessian  (SHARK)               ... done   (      0.0 sec)

----------------------------------------------
Forming right-hand sides of CP-SCF equations     ...
----------------------------------------------
One electron integral derivatives  (SHARK)       ... done   (      0.0 sec)
Transforming the overlap derivative matrices     ... done   (      0.0 sec)
Making the Q(x) pseudodensities                  ... done   (      0.0 sec)
Adding the E*S(x)*S(y) terms to the Hessian      ... done   (      0.0 sec)
Calculating energy weighted overlap derivatives  ... done   (      0.0 sec)
Two electron integral derivatives (SHARK-RI)     ... done   (      0.5 sec)
Exchange-correlation integral derivatives        ... done   (      0.4 sec)
tr(F(y)Q(x)) contribution to the Hessian         ... done   (      0.0 sec)
Response fock operator R(S(x)) (SHARK-RIJCOSX)   ... done   (      0.5 sec)
XC Response fock operator R(S(x))                ... done   (      0.1 sec)
tr(F(y)S(x)) contribution to the Hessian         ... done   (      0.0 sec)
Transforming and finalizing RHSs                 ... done   (      0.0 sec)

----------------------------------------------
Solving the CP-SCF equations (RIJCOSX)           ...
----------------------------------------------
     CP-SCF ITERATION   0:   9.6194e-02 (   0.3 sec   0/ 12 done)
     CP-SCF ITERATION   1:   2.6192e-02 (   0.3 sec   0/ 12 done)
     CP-SCF ITERATION   2:   7.3886e-03 (   0.3 sec   0/ 12 done)
     CP-SCF ITERATION   3:   2.3769e-03 (   0.3 sec   0/ 12 done)
     CP-SCF ITERATION   4:   4.5727e-04 (   0.3 sec   1/ 12 done)
     CP-SCF ITERATION   5:   9.0908e-05 (   0.3 sec  12/ 12 done)
                    *** THE CP-SCF HAS CONVERGED ***

                                                 ... done   (      1.8 sec)
Forming perturbed density Hessian contributions  ... done   (      0.0 sec)
2nd integral derivative contribs (SHARK-RI)      ... done   (      0.7 sec)
Exchange-correlation Hessian                     ... done   (      0.3 sec)
Dispersion correction in the Hessian             ... done   (      0.1 sec)
Dipole derivatives                               ... (center of mass:  0.000009, -0.000000 -0.136554)done   (      0.1 sec)

Total SCF Hessian time: 0 days 0 hours 0 min 5 sec 

Writing the Hessian file to the disk             ... done


Maximum memory used throughout the entire SCFHESS-calculation: 109.3 MB

-----------------------
VIBRATIONAL FREQUENCIES
-----------------------

Scaling factor for frequencies =  1.000000000  (already applied!)

   0:         0.00 cm**-1
   1:         0.00 cm**-1
   2:         0.00 cm**-1
   3:         0.00 cm**-1
   4:         0.00 cm**-1
   5:         0.00 cm**-1
   6:      1150.25 cm**-1
   7:      1416.41 cm**-1
   8:      1417.45 cm**-1
   9:      3077.27 cm**-1
  10:      3185.47 cm**-1
  11:      3185.57 cm**-1


------------
NORMAL MODES
------------

These modes are the Cartesian displacements weighted by the diagonal matrix
M(i,i)=1/sqrt(m[i]) where m[i] is the mass of the displaced atom
Thus, these vectors are normalized but *not* orthogonal

                  0          1          2          3          4          5    
      0       0.000000   0.000000   0.000000   0.000000   0.000000   0.000000
      1       0.000000   0.000000   0.000000   0.000000   0.000000   0.000000
      2       0.000000   0.000000   0.000000   0.000000   0.000000   0.000000
      3       0.000000   0.000000   0.000000   0.000000   0.000000   0.000000
      4       0.000000   0.000000   0.000000   0.000000   0.000000   0.000000
      5       0.000000   0.000000   0.000000   0.000000   0.000000   0.000000
      6       0.000000   0.000000   0.000000   0.000000   0.000000   0.000000
      7       0.000000   0.000000   0.000000   0.000000   0.000000   0.000000
      8       0.000000   0.000000   0.000000   0.000000   0.000000   0.000000
      9       0.000000   0.000000   0.000000   0.000000   0.000000   0.000000
     10       0.000000   0.000000   0.000000   0.000000   0.000000   0.000000
     11       0.000000   0.000000   0.000000   0.000000   0.000000   0.000000
                  6          7          8          9         10         11    
      0       0.000907  -0.000002   0.080407  -0.000247  -0.000056   0.093029
      1      -0.000000  -0.080406  -0.000002   0.000000   0.093034   0.000056
      2      -0.135500   0.000000   0.001311  -0.040137   0.000000  -0.000068
      3       0.194889  -0.000003   0.128432  -0.552525   0.000466  -0.768518
      4       0.000001   0.769196   0.000015  -0.000000   0.027928   0.000017
      5       0.540813  -0.000005   0.226500   0.158710  -0.000163   0.268347
      6      -0.102846   0.389565  -0.543258   0.277733   0.344305  -0.169786
      7       0.163624   0.094458  -0.391246  -0.480932  -0.568453   0.342533
      8       0.536879  -0.200656  -0.121062   0.159775   0.232253  -0.133629
      9      -0.102847  -0.389543  -0.543274   0.277732  -0.344099  -0.170203
     10      -0.163624   0.094443   0.391250   0.480931  -0.568039  -0.343222
     11       0.536879   0.200660  -0.121054   0.159774  -0.232091  -0.133911


-----------
IR SPECTRUM
-----------

 Mode   freq       eps      Int      T**2         TX        TY        TZ
       cm**-1   L/(mol*cm) km/mol    a.u.
----------------------------------------------------------------------------
  6:   1150.25   0.003733   18.87  0.001013  (-0.000054  0.000000  0.031825)
  7:   1416.41   0.000649    3.28  0.000143  ( 0.000000  0.011954 -0.000000)
  8:   1417.45   0.000638    3.22  0.000140  (-0.011840  0.000000 -0.000436)
  9:   3077.27   0.000016    0.08  0.000002  (-0.000044  0.000000 -0.001280)
 10:   3185.47   0.004322   21.84  0.000423  (-0.000012  0.020576 -0.000000)
 11:   3185.57   0.004242   21.44  0.000416  ( 0.020386  0.000012 -0.000027)

* The epsilon (eps) is given for a Dirac delta lineshape.
** The dipole moment derivative (T) already includes vibrational overlap.

The first frequency considered to be a vibration is 6
The total number of vibrations considered is 6


--------------------------
THERMOCHEMISTRY AT 298.15K
--------------------------

Temperature         ... 298.15 K
Pressure            ... 1.00 atm
Total Mass          ... 15.03 AMU

Throughout the following assumptions are being made:
  (1) The electronic state is orbitally nondegenerate
      but the spin degeneracy is treated
  (2) There are no thermally accessible electronically excited states
  (3) Hindered rotations indicated by low frequency modes are not
      treated as such but are treated as vibrations and this may
      cause some error
  (4) All equations used are the standard statistical mechanics
      equations for an ideal gas
  (5) All vibrations are strictly harmonic

freq.    1150.25  E(vib)   ...       0.01 
freq.    1416.41  E(vib)   ...       0.00 
freq.    1417.45  E(vib)   ...       0.00 
freq.    3077.27  E(vib)   ...       0.00 
freq.    3185.47  E(vib)   ...       0.00 
freq.    3185.57  E(vib)   ...       0.00 

------------
INNER ENERGY
------------

The inner energy is: U= E(el) + E(ZPE) + E(vib) + E(rot) + E(trans)
    E(el)   - is the total energy from the electronic structure calculation
              = E(kin-el) + E(nuc-el) + E(el-el) + E(nuc-nuc)
    E(ZPE)  - the the zero temperature vibrational energy from the frequency calculation
    E(vib)  - the the finite temperature correction to E(ZPE) due to population
              of excited vibrational states
    E(rot)  - is the rotational thermal energy
    E(trans)- is the translational thermal energy

Summary of contributions to the inner energy U:
Electronic energy                ...    -39.82761500 Eh
Zero point energy                ...      0.03060132 Eh      19.20 kcal/mol
Thermal vibrational correction   ...      0.00003432 Eh       0.02 kcal/mol
Thermal rotational correction    ...      0.00141627 Eh       0.89 kcal/mol
Thermal translational correction ...      0.00141627 Eh       0.89 kcal/mol
-----------------------------------------------------------------------
Total thermal energy                    -39.79414681 Eh


Summary of corrections to the electronic energy:
(perhaps to be used in another calculation)
Total thermal correction                  0.00286686 Eh       1.80 kcal/mol
Non-thermal (ZPE) correction              0.03060132 Eh      19.20 kcal/mol
-----------------------------------------------------------------------
Total correction                          0.03346818 Eh      21.00 kcal/mol


--------
ENTHALPY
--------

The enthalpy is H = U + kB*T
                kB is Boltzmann's constant
Total free energy                 ...    -39.79414681 Eh 
Thermal Enthalpy correction       ...      0.00094421 Eh       0.59 kcal/mol
-----------------------------------------------------------------------
Total Enthalpy                    ...    -39.79320260 Eh


Note: Rotational entropy computed according to Herzberg 
Infrared and Raman Spectra, Chapter V,1, Van Nostrand Reinhold, 1945 
Point Group:  C3v, Symmetry Number:   3  
Rotational constants in cm-1:     8.779348     8.779134     5.312524 

Vibrational entropy computed according to the QRRHO of S. Grimme
Chem.Eur.J. 2012 18 9955


-------
ENTROPY
-------

The entropy contributions are T*S = T*(S(el)+S(vib)+S(rot)+S(trans))
     S(el)   - electronic entropy
     S(vib)  - vibrational entropy
     S(rot)  - rotational entropy
     S(trans)- translational entropy
The entropies will be listed as multiplied by the temperature to get
units of energy

Electronic entropy                ...      0.00065446 Eh      0.41 kcal/mol
Vibrational entropy               ...      0.00004004 Eh      0.03 kcal/mol
Rotational entropy                ...      0.00563397 Eh      3.54 kcal/mol
Translational entropy             ...      0.01618771 Eh     10.16 kcal/mol
-----------------------------------------------------------------------
Final entropy term                ...      0.02251617 Eh     14.13 kcal/mol

In case the symmetry of your molecule has not been determined correctly
or in case you have a reason to use a different symmetry number we print 
out the resulting rotational entropy values for sn=1,12 :
 --------------------------------------------------------
|  sn= 1 | S(rot)=       0.00667126 Eh      4.19 kcal/mol|
|  sn= 2 | S(rot)=       0.00601680 Eh      3.78 kcal/mol|
|  sn= 3 | S(rot)=       0.00563397 Eh      3.54 kcal/mol|
|  sn= 4 | S(rot)=       0.00536235 Eh      3.36 kcal/mol|
|  sn= 5 | S(rot)=       0.00515166 Eh      3.23 kcal/mol|
|  sn= 6 | S(rot)=       0.00497951 Eh      3.12 kcal/mol|
|  sn= 7 | S(rot)=       0.00483397 Eh      3.03 kcal/mol|
|  sn= 8 | S(rot)=       0.00470789 Eh      2.95 kcal/mol|
|  sn= 9 | S(rot)=       0.00459668 Eh      2.88 kcal/mol|
|  sn=10 | S(rot)=       0.00449720 Eh      2.82 kcal/mol|
|  sn=11 | S(rot)=       0.00440721 Eh      2.77 kcal/mol|
|  sn=12 | S(rot)=       0.00432506 Eh      2.71 kcal/mol|
 --------------------------------------------------------


-------------------
GIBBS FREE ENERGY
-------------------

The Gibbs free energy is G = H - T*S

Total enthalpy                    ...    -39.79320260 Eh 
Total entropy correction          ...     -0.02251617 Eh    -14.13 kcal/mol
-----------------------------------------------------------------------
Final Gibbs free energy         ...    -39.81571877 Eh

For completeness - the Gibbs free energy minus the electronic energy
G-E(el)                           ...      0.01189623 Eh      7.46 kcal/mol


Timings for individual modules:

Sum of individual times         ...       47.218 sec (=   0.787 min)
GTO integral calculation        ...        8.235 sec (=   0.137 min)  17.4 %
SCF iterations                  ...       24.323 sec (=   0.405 min)  51.5 %
SCF Gradient evaluation         ...        6.366 sec (=   0.106 min)  13.5 %
Geometry relaxation             ...        0.127 sec (=   0.002 min)   0.3 %
Analytical frequency calculation...        8.168 sec (=   0.136 min)  17.3 %
                             ****ORCA TERMINATED NORMALLY****
TOTAL RUN TIME: 0 days 0 hours 0 minutes 54 seconds 441 msec

slurmID:    32260109
totalRuntime[s]:    54.480394170
