
                                 *****************
                                 * O   R   C   A *
                                 *****************

                                            #,                                       
                                            ###                                      
                                            ####                                     
                                            #####                                    
                                            ######                                   
                                           ########,                                 
                                     ,,################,,,,,                         
                               ,,#################################,,                 
                          ,,##########################################,,             
                       ,#########################################, ''#####,          
                    ,#############################################,,   '####,        
                  ,##################################################,,,,####,       
                ,###########''''           ''''###############################       
              ,#####''   ,,,,##########,,,,          '''####'''          '####       
            ,##' ,,,,###########################,,,                        '##       
           ' ,,###''''                  '''############,,,                           
         ,,##''                                '''############,,,,        ,,,,,,###''
      ,#''                                            '''#######################'''  
     '                                                          ''''####''''         
             ,#######,   #######,   ,#######,      ##                                
            ,#'     '#,  ##    ##  ,#'     '#,    #''#        ######   ,####,        
            ##       ##  ##   ,#'  ##            #'  '#       #        #'  '#        
            ##       ##  #######   ##           ,######,      #####,   #    #        
            '#,     ,#'  ##    ##  '#,     ,#' ,#      #,         ##   #,  ,#        
             '#######'   ##     ##  '#######'  #'      '#     #####' # '####'        



                  #######################################################
                  #                        -***-                        #
                  #          Department of theory and spectroscopy      #
                  #    Directorship and core code : Frank Neese         #
                  #        Max Planck Institute fuer Kohlenforschung    #
                  #                Kaiser Wilhelm Platz 1               #
                  #                 D-45470 Muelheim/Ruhr               #
                  #                      Germany                        #
                  #                                                     #
                  #                  All rights reserved                #
                  #                        -***-                        #
                  #######################################################


                         Program Version 5.0.4 -  RELEASE  -


 With contributions from (in alphabetic order):
   Daniel Aravena         : Magnetic Suceptibility
   Michael Atanasov       : Ab Initio Ligand Field Theory (pilot matlab implementation)
   Alexander A. Auer      : GIAO ZORA, VPT2 properties, NMR spectrum
   Ute Becker             : Parallelization
   Giovanni Bistoni       : ED, misc. LED, open-shell LED, HFLD
   Martin Brehm           : Molecular dynamics
   Dmytro Bykov           : SCF Hessian
   Vijay G. Chilkuri      : MRCI spin determinant printing, contributions to CSF-ICE
   Dipayan Datta          : RHF DLPNO-CCSD density
   Achintya Kumar Dutta   : EOM-CC, STEOM-CC
   Dmitry Ganyushin       : Spin-Orbit,Spin-Spin,Magnetic field MRCI
   Miquel Garcia          : C-PCM and meta-GGA Hessian, CC/C-PCM, Gaussian charge scheme
   Yang Guo               : DLPNO-NEVPT2, F12-NEVPT2, CIM, IAO-localization
   Andreas Hansen         : Spin unrestricted coupled pair/coupled cluster methods
   Benjamin Helmich-Paris : MC-RPA, TRAH-SCF, COSX integrals
   Lee Huntington         : MR-EOM, pCC
   Robert Izsak           : Overlap fitted RIJCOSX, COSX-SCS-MP3, EOM
   Marcus Kettner         : VPT2
   Christian Kollmar      : KDIIS, OOCD, Brueckner-CCSD(T), CCSD density, CASPT2, CASPT2-K
   Simone Kossmann        : Meta GGA functionals, TD-DFT gradient, OOMP2, MP2 Hessian
   Martin Krupicka        : Initial AUTO-CI
   Lucas Lang             : DCDCAS
   Marvin Lechner         : AUTO-CI (C++ implementation), FIC-MRCC
   Dagmar Lenk            : GEPOL surface, SMD
   Dimitrios Liakos       : Extrapolation schemes; Compound Job, initial MDCI parallelization
   Dimitrios Manganas     : Further ROCIS development; embedding schemes
   Dimitrios Pantazis     : SARC Basis sets
   Anastasios Papadopoulos: AUTO-CI, single reference methods and gradients
   Taras Petrenko         : DFT Hessian,TD-DFT gradient, ASA, ECA, R-Raman, ABS, FL, XAS/XES, NRVS
   Peter Pinski           : DLPNO-MP2, DLPNO-MP2 Gradient
   Christoph Reimann      : Effective Core Potentials
   Marius Retegan         : Local ZFS, SOC
   Christoph Riplinger    : Optimizer, TS searches, QM/MM, DLPNO-CCSD(T), (RO)-DLPNO pert. Triples
   Tobias Risthaus        : Range-separated hybrids, TD-DFT gradient, RPA, STAB
   Michael Roemelt        : Original ROCIS implementation
   Masaaki Saitow         : Open-shell DLPNO-CCSD energy and density
   Barbara Sandhoefer     : DKH picture change effects
   Avijit Sen             : IP-ROCIS
   Kantharuban Sivalingam : CASSCF convergence, NEVPT2, FIC-MRCI
   Bernardo de Souza      : ESD, SOC TD-DFT
   Georgi Stoychev        : AutoAux, RI-MP2 NMR, DLPNO-MP2 response
   Willem Van den Heuvel  : Paramagnetic NMR
   Boris Wezisla          : Elementary symmetry handling
   Frank Wennmohs         : Technical directorship


 We gratefully acknowledge several colleagues who have allowed us to
 interface, adapt or use parts of their codes:
   Stefan Grimme, W. Hujo, H. Kruse, P. Pracht,  : VdW corrections, initial TS optimization,
                  C. Bannwarth, S. Ehlert          DFT functionals, gCP, sTDA/sTD-DF
   Ed Valeev, F. Pavosevic, A. Kumar             : LibInt (2-el integral package), F12 methods
   Garnet Chan, S. Sharma, J. Yang, R. Olivares  : DMRG
   Ulf Ekstrom                                   : XCFun DFT Library
   Mihaly Kallay                                 : mrcc  (arbitrary order and MRCC methods)
   Jiri Pittner, Ondrej Demel                    : Mk-CCSD
   Frank Weinhold                                : gennbo (NPA and NBO analysis)
   Christopher J. Cramer and Donald G. Truhlar   : smd solvation model
   Lars Goerigk                                  : TD-DFT with DH, B97 family of functionals
   V. Asgeirsson, H. Jonsson                     : NEB implementation
   FAccTs GmbH                                   : IRC, NEB, NEB-TS, DLPNO-Multilevel, CI-OPT
                                                   MM, QMMM, 2- and 3-layer-ONIOM, Crystal-QMMM,
                                                   LR-CPCM, SF, NACMEs, symmetry and pop. for TD-DFT,
                                                   nearIR, NL-DFT gradient (VV10), updates on ESD,
                                                   ML-optimized integration grids
   S Lehtola, MJT Oliveira, MAL Marques          : LibXC Library
   Liviu Ungur et al                             : ANISO software


 Your calculation uses the libint2 library for the computation of 2-el integrals
 For citations please refer to: http://libint.valeyev.net

 Your ORCA version has been built with support for libXC version: 5.1.0
 For citations please refer to: https://tddft.org/programs/libxc/

 This ORCA versions uses:
   CBLAS   interface :  Fast vector & matrix operations
   LAPACKE interface :  Fast linear algebra routines
   SCALAPACK package :  Parallel linear algebra routines
   Shared memory     :  Shared parallel matrices
   BLAS/LAPACK       :  OpenBLAS 0.3.15  USE64BITINT DYNAMIC_ARCH NO_AFFINITY SkylakeX SINGLE_THREADED
        Core in use  :  SkylakeX
   Copyright (c) 2011-2014, The OpenBLAS Project


Your calculation utilizes the atom-pairwise dispersion correction
with the zero-damping scheme (D30)
Cite in your paper:
S.Grimme, J.Antony, S.Ehrlich and H.Krieg, J.Chem.Phys., 132, (2010), 154104 
   

XCFun DFT library Copyright 2009-2010 Ulf Ekstrom and contributors.
See http://admol.org/xcfun for more information.
This is free software; see the source code for copying conditions.
There is ABSOLUTELY NO WARRANTY; not even for MERCHANTABILITY or FITNESS FOR A PARTICULAR PURPOSE.
For details see the documentation.
Scientific users of this library should cite U. Ekstrom, L. Visscher, R. Bast, A. J. Thorvaldsen and K. Ruud;
J.Chem.Theor.Comp. 2010, DOI: 10.1021/ct100117s
XCFun Version 0.99 

================================================================================

----- Orbital basis set information -----
Your calculation utilizes the basis: def2-TZVPD
   F. Weigend and R. Ahlrichs, Phys. Chem. Chem. Phys. 7, 3297 (2005).
   D. Rappoport and F. Furche, J. Chem. Phys. 133 134105 (2010).

----- AuxJ basis set information -----
Your calculation utilizes the auxiliary basis: def2/J
   F. Weigend, Phys. Chem. Chem. Phys. 8, 1057 (2006).

================================================================================
                                        WARNINGS
                       Please study these warnings very carefully!
================================================================================


WARNING: Geometry Optimization
  ===> : Switching off AutoStart
         For restart on a previous wavefunction, please use MOREAD

INFO   : the flag for use of the SHARK integral package has been found!

================================================================================
                                       INPUT FILE
================================================================================
NAME = /beegfs/scratch/ispackman/PFAS_EPR_calcs/benchmark/JChemEd_CF3_radical/CH3_radical_100.5_degrees_IN-PROGRESS/CH3_radical_100.5_degrees.inp
|  1> ! UKS TightSCF wB97x-D3 def2-TZVPD xyzfile opt freq
|  2> 
|  3> # CH3 radical 100.5 degrees fixed
|  4> 
|  5> %maxcore 1000
|  6> %pal
|  7> nprocs 18
|  8> end
|  9> 
| 10> %geom Constraints
| 11>         { A * 0 * C }
| 12>     end
| 13> end
| 14> * xyz 0 2
| 15> C 0.00 0.00 0.00
| 16> H 0.9588046436 0.0000000000 -0.4970851591
| 17> H -0.4794023218 0.8303491786 -0.4970851591
| 18> H -0.4794023218 -0.8303491786 -0.4970851591
| 19> **                         ****END OF INPUT****
================================================================================

                       *****************************
                       * Geometry Optimization Run *
                       *****************************

Geometry optimization settings:
Update method            Update   .... BFGS
Choice of coordinates    CoordSys .... Z-matrix Internals
Initial Hessian          InHess   .... Almoef's Model

Convergence Tolerances:
Energy Change            TolE     ....  5.0000e-06 Eh
Max. Gradient            TolMAXG  ....  3.0000e-04 Eh/bohr
RMS Gradient             TolRMSG  ....  1.0000e-04 Eh/bohr
Max. Displacement        TolMAXD  ....  4.0000e-03 bohr
RMS Displacement         TolRMSD  ....  2.0000e-03 bohr
Strict Convergence                ....  False
------------------------------------------------------------------------------
                        ORCA OPTIMIZATION COORDINATE SETUP
------------------------------------------------------------------------------

The optimization will be done in new redundant internal coordinates
Making redundant internal coordinates   ...  (new redundants) done
Evaluating the initial hessian          ...  (Almloef) done
Evaluating the coordinates              ...  done
Calculating the B-matrix                .... done
Calculating the G-matrix                .... done
Diagonalizing the G-matrix              .... done
Imposing constraints:
 Iter   0:  RMS(Cart)=    0.0000000000 RMS(Int)=    0.0000000000
CONVERGED
Will constrain atom 0 coordinate 1 
Will constrain atom 0 coordinate 2 
Will constrain atom 1 coordinate 2 
The first mode is                       ....    1
The number of degrees of freedom        ....    6
Storing new coordinates                 .... done

    -----------------------------------------------------------------
                    Redundant Internal Coordinates


    -----------------------------------------------------------------
         Definition                    Initial Value    Approx d2E/dq
    -----------------------------------------------------------------
      1. B(H   1,C   0)                  1.0800         0.373575   
      2. B(H   2,C   0)                  1.0800         0.373575   
      3. B(H   3,C   0)                  1.0800         0.373575   
      4. A(H   2,C   0,H   3)          100.5000         0.294224 C 
      5. A(H   1,C   0,H   2)          100.5000         0.294224 C 
      6. A(H   1,C   0,H   3)          100.5000         0.294224 C 
      7. I(H   1,H   3,H   2,C   0)     73.4416         0.002635   
    -----------------------------------------------------------------

Number of atoms                         .... 4
Number of degrees of freedom            .... 7

         *************************************************************
         *                GEOMETRY OPTIMIZATION CYCLE   1            *
         *************************************************************
---------------------------------
CARTESIAN COORDINATES (ANGSTROEM)
---------------------------------
  C      0.000000    0.000000    0.000000
  H      0.958805    0.000000   -0.497085
  H     -0.479402    0.830349   -0.497085
  H     -0.479402   -0.830349   -0.497085

----------------------------
CARTESIAN COORDINATES (A.U.)
----------------------------
  NO LB      ZA    FRAG     MASS         X           Y           Z
   0 C     6.0000    0    12.011    0.000000    0.000000    0.000000
   1 H     1.0000    0     1.008    1.811878    0.000000   -0.939355
   2 H     1.0000    0     1.008   -0.905939    1.569133   -0.939355
   3 H     1.0000    0     1.008   -0.905939   -1.569133   -0.939355

--------------------------------
INTERNAL COORDINATES (ANGSTROEM)
--------------------------------
 C      0   0   0     0.000000000000     0.00000000     0.00000000
 H      1   0   0     1.079999999994     0.00000000     0.00000000
 H      1   2   0     1.079999999975   100.50000000     0.00000000
 H      1   2   3     1.079999999975   100.50000000   102.87624627

---------------------------
INTERNAL COORDINATES (A.U.)
---------------------------
 C      0   0   0     0.000000000000     0.00000000     0.00000000
 H      1   0   0     2.040904224623     0.00000000     0.00000000
 H      1   2   0     2.040904224588   100.50000000     0.00000000
 H      1   2   3     2.040904224588   100.50000000   102.87624627

---------------------
BASIS SET INFORMATION
---------------------
There are 2 groups of distinct atoms

 Group   1 Type C   : 12s6p3d1f contracted to 6s3p3d1f pattern {621111/411/111/1}
 Group   2 Type H   : 5s2p contracted to 3s2p pattern {311/11}

Atom   0C    basis set group =>   1
Atom   1H    basis set group =>   2
Atom   2H    basis set group =>   2
Atom   3H    basis set group =>   2
---------------------------------
AUXILIARY/J BASIS SET INFORMATION
---------------------------------
There are 2 groups of distinct atoms

 Group   1 Type C   : 12s5p4d2f1g contracted to 6s4p3d1f1g pattern {711111/2111/211/2/1}
 Group   2 Type H   : 5s2p1d contracted to 3s1p1d pattern {311/2/1}

Atom   0C    basis set group =>   1
Atom   1H    basis set group =>   2
Atom   2H    basis set group =>   2
Atom   3H    basis set group =>   2


           ************************************************************
           *        Program running with 18 parallel MPI-processes    *
           *              working on a common directory               *
           ************************************************************
------------------------------------------------------------------------------
                           ORCA GTO INTEGRAL CALCULATION
                           -- RI-GTO INTEGRALS CHOSEN --
------------------------------------------------------------------------------
------------------------------------------------------------------------------
                   ___                                                        
                  /   \      - P O W E R E D   B Y -                         
                 /     \                                                     
                 |  |  |   _    _      __       _____    __    __             
                 |  |  |  | |  | |    /  \     |  _  \  |  |  /  |          
                  \  \/   | |  | |   /    \    | | | |  |  | /  /          
                 / \  \   | |__| |  /  /\  \   | |_| |  |  |/  /          
                |  |  |   |  __  | /  /__\  \  |    /   |      \           
                |  |  |   | |  | | |   __   |  |    \   |  |\   \          
                \     /   | |  | | |  |  |  |  | |\  \  |  | \   \       
                 \___/    |_|  |_| |__|  |__|  |_| \__\ |__|  \__/        
                                                                              
                      - O R C A' S   B I G   F R I E N D -                    
                                      &                                       
                       - I N T E G R A L  F E E D E R -                       
                                                                              
 v1 FN, 2020, v2 2021                                                         
------------------------------------------------------------------------------


Reading SHARK input file /beegfs/scratch/ispackman/PFAS_EPR_calcs/benchmark/JChemEd_CF3_radical/CH3_radical_100.5_degrees_IN-PROGRESS/CH3_radical_100.5_degrees.SHARKINP.tmp ... ok
----------------------
SHARK INTEGRAL PACKAGE
----------------------

Number of atoms                             ...      4
Number of basis functions                   ...     64
Number of shells                            ...     28
Maximum angular momentum                    ...      3
Integral batch strategy                     ... SHARK/LIBINT Hybrid
RI-J (if used) integral strategy            ... SPLIT-RIJ (Revised 2003 algorithm where possible)
Printlevel                                  ...      1
Contraction scheme used                     ... SEGMENTED contraction
Coulomb Range Separation                    ... NOT USED
Exchange Range Separation                   ... Long Range
   Mu parameter                             ...  0.250000
   Scaling (regular/separated)              ...  0.195728  0.804272
Finite Nucleus Model                        ... NOT USED
Auxiliary Coulomb fitting basis             ... AVAILABLE
   # of basis functions in Aux-J            ...     82
   # of shells in Aux-J                     ...     30
   Maximum angular momentum in Aux-J        ...      4
Auxiliary J/K fitting basis                 ... NOT available
Auxiliary Correlation fitting basis         ... NOT available
Auxiliary 'external' fitting basis          ... NOT available
Integral threshold                          ...     2.500000e-11
Primitive cut-off                           ...     2.500000e-12
Primitive pair pre-selection threshold      ...     2.500000e-12

Calculating pre-screening integrals         ... done (  0.0 sec) Dimension = 28
Organizing shell pair data                  ... done (  0.0 sec)
Shell pair information
Total number of shell pairs                 ...       406
Shell pairs after pre-screening             ...       406
Total number of primitive shell pairs       ...       977
Primitive shell pairs kept                  ...       947
          la=0 lb=0:    120 shell pairs
          la=1 lb=0:    135 shell pairs
          la=1 lb=1:     45 shell pairs
          la=2 lb=0:     45 shell pairs
          la=2 lb=1:     27 shell pairs
          la=2 lb=2:      6 shell pairs
          la=3 lb=0:     15 shell pairs
          la=3 lb=1:      9 shell pairs
          la=3 lb=2:      3 shell pairs
          la=3 lb=3:      1 shell pairs

Calculating one electron integrals          ... done (  0.0 sec)
Calculating RI/J V-Matrix + Cholesky decomp.... done (  0.0 sec)
Calculating Nuclear repulsion               ... done (  0.0 sec) ENN=      9.775562328706 Eh

SHARK setup successfully completed in   0.3 seconds

Maximum memory used throughout the entire GTOINT-calculation: 14.0 MB


           ************************************************************
           *        Program running with 18 parallel MPI-processes    *
           *              working on a common directory               *
           ************************************************************
-------------------------------------------------------------------------------
                                 ORCA SCF
-------------------------------------------------------------------------------

------------
SCF SETTINGS
------------
Hamiltonian:
 Density Functional     Method          .... DFT(GTOs)
 Exchange Functional    Exchange        .... WB97X-D3
 Correlation Functional Correlation     .... WB97X-D3
 Gradients option       PostSCFGGA      .... off
 Hybrid DFT is turned on
   Fraction HF Exchange ScalHFX         ....  0.195728
   Scaling of DF-GGA-X  ScalDFX         ....  0.000000
   Scaling of DF-GGA-C  ScalDFC         ....  1.000000
   Scaling of DF-LDA-C  ScalLDAC        ....  1.000000
   Perturbative correction              ....  0.000000
   Density functional embedding theory  .... OFF
 Long-range corrected/Screened/Range-Separated Hybrid DFT is turned on
   Amount of maximum screened exact exchange              ....  0.804272
   Range separation parameter mu (erf(mu*r12)/r12)        ....  0.250000
 RI-approximation to the Coulomb term is turned on
   Number of AuxJ basis functions       .... 82
   RIJ-COSX (HFX calculated with COS-X)).... on


General Settings:
 Integral files         IntName         .... /beegfs/scratch/ispackman/PFAS_EPR_calcs/benchmark/JChemEd_CF3_radical/CH3_radical_100.5_degrees_IN-PROGRESS/CH3_radical_100.5_degrees
 Hartree-Fock type      HFTyp           .... UHF
 Total Charge           Charge          ....    0
 Multiplicity           Mult            ....    2
 Number of Electrons    NEL             ....    9
 Basis Dimension        Dim             ....   64
 Nuclear Repulsion      ENuc            ....      9.7755623287 Eh

Convergence Acceleration:
 DIIS                   CNVDIIS         .... on
   Start iteration      DIISMaxIt       ....    12
   Startup error        DIISStart       ....  0.200000
   # of expansion vecs  DIISMaxEq       ....     5
   Bias factor          DIISBfac        ....   1.050
   Max. coefficient     DIISMaxC        ....  10.000
 Trust-Rad. Augm. Hess. CNVTRAH         .... auto
   Auto Start mean grad. ratio tolernc. ....  1.125000
   Auto Start start iteration           ....    20
   Auto Start num. interpolation iter.  ....    10
   Max. Number of Micro iterations      ....    16
   Max. Number of Macro iterations      .... Maxiter - #DIIS iter
   Number of Davidson start vectors     ....     2
   Converg. threshold I  (grad. norm)   ....   1.000e-05
   Converg. threshold II (energy diff.) ....   1.000e-08
   Grad. Scal. Fac. for Micro threshold ....   0.100
   Minimum threshold for Micro iter.    ....   0.010
   NR start threshold (gradient norm)   ....   0.001
   Initial trust radius                 ....   0.400
   Minimum AH scaling param. (alpha)    ....   1.000
   Maximum AH scaling param. (alpha)    .... 1000.000
   Orbital update algorithm             .... Taylor
   White noise on init. David. guess    .... on
   Maximum white noise                  ....   0.010
   Quad. conv. algorithm                .... NR
 SOSCF                  CNVSOSCF        .... off
 Level Shifting         CNVShift        .... on
   Level shift para.    LevelShift      ....    0.2500
   Turn off err/grad.   ShiftErr        ....    0.0010
 Zerner damping         CNVZerner       .... off
 Static damping         CNVDamp         .... on
   Fraction old density DampFac         ....    0.7000
   Max. Damping (<1)    DampMax         ....    0.9800
   Min. Damping (>=0)   DampMin         ....    0.0000
   Turn off err/grad.   DampErr         ....    0.1000
 Fernandez-Rico         CNVRico         .... off

SCF Procedure:
 Maximum # iterations   MaxIter         ....   125
 SCF integral mode      SCFMode         .... Direct
   Integral package                     .... SHARK and LIBINT hybrid scheme
 Reset frequency        DirectResetFreq ....    20
 Integral Threshold     Thresh          ....  2.500e-11 Eh
 Primitive CutOff       TCut            ....  2.500e-12 Eh

Convergence Tolerance:
 Convergence Check Mode ConvCheckMode   .... Total+1el-Energy
 Convergence forced     ConvForced      .... 0
 Energy Change          TolE            ....  1.000e-08 Eh
 1-El. energy change                    ....  1.000e-05 Eh
 DIIS Error             TolErr          ....  5.000e-07


Diagonalization of the overlap matrix:
Smallest eigenvalue                        ... 3.996e-05
Time for diagonalization                   ...    0.002 sec
Threshold for overlap eigenvalues          ... 1.000e-08
Number of eigenvalues below threshold      ... 0
Time for construction of square roots      ...    0.013 sec
Total time needed                          ...    0.016 sec

Time for model grid setup =    0.040 sec

------------------------------
INITIAL GUESS: MODEL POTENTIAL
------------------------------
Loading Hartree-Fock densities                     ... done
Calculating cut-offs                               ... done
Initializing the effective Hamiltonian             ... done
Setting up the integral package (SHARK)            ... done
Starting the Coulomb interaction                   ... done (   0.1 sec)
Reading the grid                                   ... done
Mapping shells                                     ... done
Starting the XC term evaluation                    ... done (   0.0 sec)
  promolecular density results
     # of electrons  =      8.997913564
     EX              =     -5.936703349
     EC              =     -0.260319755
     EX+EC           =     -6.197023104
Transforming the Hamiltonian                       ... done (   0.0 sec)
Diagonalizing the Hamiltonian                      ... done (   0.0 sec)
Back transforming the eigenvectors                 ... done (   0.0 sec)
Now organizing SCF variables                       ... done
                      ------------------
                      INITIAL GUESS DONE (   0.2 sec)
                      ------------------
-------------------
DFT GRID GENERATION
-------------------

General Integration Accuracy     IntAcc      ... 4.388
Radial Grid Type                 RadialGrid  ... OptM3 with GC (2021)
Angular Grid (max. ang.)         AngularGrid ... 4 (Lebedev-302)
Angular grid pruning method      GridPruning ... 4 (adaptive)
Weight generation scheme         WeightScheme... Becke
Basis function cutoff            BFCut       ... 1.0000e-11
Integration weight cutoff        WCut        ... 1.0000e-14
Angular grids for H and He will be reduced by one unit
Partially contracted basis set               ... off
Rotationally invariant grid construction     ... off

Total number of grid points                  ...    17040
Total number of batches                      ...      269
Average number of points per batch           ...       63
Average number of grid points per atom       ...     4260
Time for grid setup =    0.100 sec

--------------------
COSX GRID GENERATION
--------------------

GRIDX 1
-------
General Integration Accuracy     IntAcc      ... 3.816
Radial Grid Type                 RadialGrid  ... OptM3 with GC (2021)
Angular Grid (max. ang.)         AngularGrid ... 1 (Lebedev-50)
Angular grid pruning method      GridPruning ... 4 (adaptive)
Weight generation scheme         WeightScheme... Becke
Basis function cutoff            BFCut       ... 1.0000e-11
Integration weight cutoff        WCut        ... 1.0000e-14
Angular grids for H and He will be reduced by one unit
Partially contracted basis set               ... on
Rotationally invariant grid construction     ... off

Total number of grid points                  ...     2145
Total number of batches                      ...       36
Average number of points per batch           ...       59
Average number of grid points per atom       ...      536
UseSFitting                                  ... on

GRIDX 2
-------
General Integration Accuracy     IntAcc      ... 4.020
Radial Grid Type                 RadialGrid  ... OptM3 with GC (2021)
Angular Grid (max. ang.)         AngularGrid ... 2 (Lebedev-110)
Angular grid pruning method      GridPruning ... 4 (adaptive)
Weight generation scheme         WeightScheme... Becke
Basis function cutoff            BFCut       ... 1.0000e-11
Integration weight cutoff        WCut        ... 1.0000e-14
Angular grids for H and He will be reduced by one unit
Partially contracted basis set               ... on
Rotationally invariant grid construction     ... off

Total number of grid points                  ...     5038
Total number of batches                      ...       80
Average number of points per batch           ...       62
Average number of grid points per atom       ...     1260
UseSFitting                                  ... on

GRIDX 3
-------
General Integration Accuracy     IntAcc      ... 4.338
Radial Grid Type                 RadialGrid  ... OptM3 with GC (2021)
Angular Grid (max. ang.)         AngularGrid ... 3 (Lebedev-194)
Angular grid pruning method      GridPruning ... 4 (adaptive)
Weight generation scheme         WeightScheme... Becke
Basis function cutoff            BFCut       ... 1.0000e-11
Integration weight cutoff        WCut        ... 1.0000e-14
Angular grids for H and He will be reduced by one unit
Partially contracted basis set               ... on
Rotationally invariant grid construction     ... off

Total number of grid points                  ...    11712
Total number of batches                      ...      186
Average number of points per batch           ...       62
Average number of grid points per atom       ...     2928
UseSFitting                                  ... on

Time for X-Grid setup             =    0.269 sec

--------------
SCF ITERATIONS
--------------
ITER       Energy         Delta-E        Max-DP      RMS-DP      [F,P]     Damp
               ***  Starting incremental Fock matrix formation  ***
  0    -39.7727323207   0.000000000000 0.06560570  0.00124405  0.0758976 0.7000
  1    -39.7864275410  -0.013695220260 0.06035199  0.00109293  0.0487685 0.7000
                               ***Turning on DIIS***
  2    -39.7942056067  -0.007778065776 0.12892545  0.00238097  0.0282341 0.0000
  3    -39.8077702302  -0.013564623417 0.04110324  0.00075629  0.0191969 0.0000
  4    -39.8092887958  -0.001518565601 0.01376992  0.00023494  0.0032992 0.0000
  5    -39.8093552521  -0.000066456307 0.01224297  0.00020026  0.0016433 0.0000
  6    -39.8093775518  -0.000022299744 0.01299469  0.00020504  0.0006265 0.0000
               *** Restarting incremental Fock matrix formation ***
                                   *** Resetting DIIS ***
  7    -39.8093864400  -0.000008888227 0.00122883  0.00001936  0.0000833 0.0000
  8    -39.8093865897  -0.000000149678 0.00075583  0.00001194  0.0000383 0.0000
  9    -39.8093866356  -0.000000045855 0.00002339  0.00000080  0.0000160 0.0000
 10    -39.8093866380  -0.000000002477 0.00000891  0.00000029  0.0000063 0.0000
                 **** Energy Check signals convergence ****

               *****************************************************
               *                     SUCCESS                       *
               *           SCF CONVERGED AFTER  11 CYCLES          *
               *****************************************************

Old exchange energy                            =     -2.173450099 Eh
New exchange energy                            =     -2.173453031 Eh
Exchange energy change after final integration =     -0.000002933 Eh
Total energy after final integration           =    -39.809389571 Eh
Final COS-X integration done in                =     0.114 sec

----------------
TOTAL SCF ENERGY
----------------

Total Energy       :          -39.80938957 Eh           -1083.26856 eV

Components:
Nuclear Repulsion  :            9.77556233 Eh             266.00657 eV
Electronic Energy  :          -49.58495190 Eh           -1349.27514 eV
One Electron Energy:          -71.79293663 Eh           -1953.58512 eV
Two Electron Energy:           22.20798473 Eh             604.30999 eV
Max COSX asymmetry :            0.00000014 Eh               0.00000 eV

Virial components:
Potential Energy   :          -79.47558540 Eh           -2162.64063 eV
Kinetic Energy     :           39.66619583 Eh            1079.37206 eV
Virial Ratio       :            2.00360997


DFT components:
N(Alpha)           :        4.999997000509 electrons
N(Beta)            :        4.000000229549 electrons
N(Total)           :        8.999997230058 electrons
E(XC)              :       -4.316724761867 Eh       
DFET-embed. en.    :        0.000000000000 Eh       

---------------
SCF CONVERGENCE
---------------

  Last Energy change         ...    4.0032e-11  Tolerance :   1.0000e-08
  Last MAX-Density change    ...    0.0000e+00  Tolerance :   1.0000e-07
  Last RMS-Density change    ...    0.0000e+00  Tolerance :   5.0000e-09
  Last DIIS Error            ...    1.2669e-06  Tolerance :   5.0000e-07

             **** THE GBW FILE WAS UPDATED (/beegfs/scratch/ispackman/PFAS_EPR_calcs/benchmark/JChemEd_CF3_radical/CH3_radical_100.5_degrees_IN-PROGRESS/CH3_radical_100.5_degrees.gbw) ****
             **** DENSITY /beegfs/scratch/ispackman/PFAS_EPR_calcs/benchmark/JChemEd_CF3_radical/CH3_radical_100.5_degrees_IN-PROGRESS/CH3_radical_100.5_degrees.scfp WAS UPDATED ****
             **** ENERGY FILE WAS UPDATED (/beegfs/scratch/ispackman/PFAS_EPR_calcs/benchmark/JChemEd_CF3_radical/CH3_radical_100.5_degrees_IN-PROGRESS/CH3_radical_100.5_degrees.en.tmp) ****
----------------------
UHF SPIN CONTAMINATION
----------------------

Warning: in a DFT calculation there is little theoretical justification to 
         calculate <S**2> as in Hartree-Fock theory. We will do it anyways
         but you should keep in mind that the values have only limited relevance

Expectation value of <S**2>     :     0.753015
Ideal value S*(S+1) for S=0.5   :     0.750000
Deviation                       :     0.003015

             **** THE GBW FILE WAS UPDATED (/beegfs/scratch/ispackman/PFAS_EPR_calcs/benchmark/JChemEd_CF3_radical/CH3_radical_100.5_degrees_IN-PROGRESS/CH3_radical_100.5_degrees.gbw) ****
             **** DENSITY /beegfs/scratch/ispackman/PFAS_EPR_calcs/benchmark/JChemEd_CF3_radical/CH3_radical_100.5_degrees_IN-PROGRESS/CH3_radical_100.5_degrees.scfp WAS UPDATED ****
----------------
ORBITAL ENERGIES
----------------
                 SPIN UP ORBITALS
  NO   OCC          E(Eh)            E(eV) 
   0   1.0000     -10.294636      -280.1313 
   1   1.0000      -0.819854       -22.3094 
   2   1.0000      -0.495305       -13.4779 
   3   1.0000      -0.495272       -13.4770 
   4   1.0000      -0.385243       -10.4830 
   5   0.0000       0.075222         2.0469 
   6   0.0000       0.161589         4.3971 
   7   0.0000       0.161596         4.3973 
   8   0.0000       0.176973         4.8157 
   9   0.0000       0.194186         5.2841 
  10   0.0000       0.194190         5.2842 
  11   0.0000       0.233981         6.3669 
  12   0.0000       0.253187         6.8896 
  13   0.0000       0.253190         6.8897 
  14   0.0000       0.315873         8.5953 
  15   0.0000       0.352192         9.5836 
  16   0.0000       0.352201         9.5839 
  17   0.0000       0.356872         9.7110 
  18   0.0000       0.379311        10.3216 
  19   0.0000       0.383612        10.4386 
  20   0.0000       0.383617        10.4388 
  21   0.0000       0.398401        10.8410 
  22   0.0000       0.398409        10.8413 
  23   0.0000       0.533244        14.5103 
  24   0.0000       0.560587        15.2544 
  25   0.0000       0.560596        15.2546 
  26   0.0000       0.629397        17.1268 
  27   0.0000       0.783835        21.3292 
  28   0.0000       0.790092        21.4995 
  29   0.0000       0.790098        21.4997 
  30   0.0000       0.869109        23.6497 
  31   0.0000       0.869120        23.6500 
  32   0.0000       0.973723        26.4964 
  33   0.0000       1.160893        31.5895 
  34   0.0000       1.160922        31.5903 
  35   0.0000       1.647623        44.8341 
  36   0.0000       1.741693        47.3939 
  37   0.0000       1.741778        47.3962 
  38   0.0000       1.766235        48.0617 
  39   0.0000       1.810627        49.2697 
  40   0.0000       1.938408        52.7468 
  41   0.0000       1.938445        52.7478 
  42   0.0000       2.201165        59.8967 
  43   0.0000       2.226267        60.5798 
  44   0.0000       2.226354        60.5822 
  45   0.0000       2.412708        65.6531 
  46   0.0000       2.642506        71.9062 
  47   0.0000       2.642526        71.9068 
  48   0.0000       2.723143        74.1005 
  49   0.0000       2.723252        74.1035 
  50   0.0000       2.816197        76.6326 
  51   0.0000       3.068032        83.4854 
  52   0.0000       3.155685        85.8705 
  53   0.0000       3.155764        85.8727 
  54   0.0000       3.308205        90.0208 
  55   0.0000       3.309264        90.0497 
  56   0.0000       3.309299        90.0506 
  57   0.0000       3.375878        91.8623 
  58   0.0000       3.718443       101.1840 
  59   0.0000       3.718498       101.1855 
  60   0.0000       4.372701       118.9872 
  61   0.0000       4.463110       121.4474 
  62   0.0000       4.463362       121.4542 
  63   0.0000      22.180044       603.5497 

                 SPIN DOWN ORBITALS
  NO   OCC          E(Eh)            E(eV) 
   0   1.0000     -10.283086      -279.8170 
   1   1.0000      -0.784069       -21.3356 
   2   1.0000      -0.479885       -13.0583 
   3   1.0000      -0.479869       -13.0579 
   4   0.0000      -0.032609        -0.8873 
   5   0.0000       0.083669         2.2768 
   6   0.0000       0.166602         4.5335 
   7   0.0000       0.166608         4.5336 
   8   0.0000       0.200818         5.4645 
   9   0.0000       0.200827         5.4648 
  10   0.0000       0.212890         5.7930 
  11   0.0000       0.249402         6.7866 
  12   0.0000       0.257232         6.9996 
  13   0.0000       0.257232         6.9997 
  14   0.0000       0.325395         8.8545 
  15   0.0000       0.367609        10.0031 
  16   0.0000       0.367615        10.0033 
  17   0.0000       0.370308        10.0766 
  18   0.0000       0.379166        10.3176 
  19   0.0000       0.390916        10.6374 
  20   0.0000       0.390917        10.6374 
  21   0.0000       0.407212        11.0808 
  22   0.0000       0.407216        11.0809 
  23   0.0000       0.564583        15.3631 
  24   0.0000       0.564591        15.3633 
  25   0.0000       0.569969        15.5096 
  26   0.0000       0.638193        17.3661 
  27   0.0000       0.791620        21.5411 
  28   0.0000       0.802374        21.8337 
  29   0.0000       0.802374        21.8337 
  30   0.0000       0.889880        24.2149 
  31   0.0000       0.889899        24.2154 
  32   0.0000       0.991954        26.9925 
  33   0.0000       1.171430        31.8762 
  34   0.0000       1.171459        31.8770 
  35   0.0000       1.717026        46.7227 
  36   0.0000       1.751012        47.6475 
  37   0.0000       1.751113        47.6502 
  38   0.0000       1.767525        48.0968 
  39   0.0000       1.824880        49.6575 
  40   0.0000       1.954207        53.1767 
  41   0.0000       1.954263        53.1782 
  42   0.0000       2.204829        59.9964 
  43   0.0000       2.237230        60.8781 
  44   0.0000       2.237285        60.8796 
  45   0.0000       2.427676        66.0604 
  46   0.0000       2.647901        72.0530 
  47   0.0000       2.647904        72.0531 
  48   0.0000       2.748661        74.7949 
  49   0.0000       2.748706        74.7961 
  50   0.0000       2.839181        77.2581 
  51   0.0000       3.114456        84.7486 
  52   0.0000       3.203194        87.1634 
  53   0.0000       3.203229        87.1643 
  54   0.0000       3.329420        90.5981 
  55   0.0000       3.345953        91.0480 
  56   0.0000       3.346012        91.0496 
  57   0.0000       3.405459        92.6672 
  58   0.0000       3.762991       102.3962 
  59   0.0000       3.763004       102.3965 
  60   0.0000       4.396988       119.6481 
  61   0.0000       4.485513       122.0570 
  62   0.0000       4.485758       122.0637 
  63   0.0000      22.200091       604.0952 

                    ********************************
                    * MULLIKEN POPULATION ANALYSIS *
                    ********************************

--------------------------------------------
MULLIKEN ATOMIC CHARGES AND SPIN POPULATIONS
--------------------------------------------
   0 C :   -0.692259    0.884798
   1 H :    0.230453    0.038386
   2 H :    0.230903    0.038408
   3 H :    0.230903    0.038408
Sum of atomic charges         :    0.0000000
Sum of atomic spin populations:    1.0000000

-----------------------------------------------------
MULLIKEN REDUCED ORBITAL CHARGES AND SPIN POPULATIONS
-----------------------------------------------------
CHARGE
  0 C s       :     3.322330  s :     3.322330
      pz      :     0.955086  p :     3.317599
      px      :     1.181218
      py      :     1.181295
      dz2     :     0.000202  d :     0.051702
      dxz     :     0.017758
      dyz     :     0.017772
      dx2y2   :     0.007976
      dxy     :     0.007993
      f0      :     0.000355  f :     0.000629
      f+1     :     0.000015
      f-1     :     0.000015
      f+2     :    -0.000073
      f-2     :    -0.000068
      f+3     :     0.000386
      f-3     :     0.000000
  1 H s       :     0.726092  s :     0.726092
      pz      :     0.022483  p :     0.043455
      px      :     0.016401
      py      :     0.004571
  2 H s       :     0.725763  s :     0.725763
      pz      :     0.022410  p :     0.043334
      px      :     0.007515
      py      :     0.013409
  3 H s       :     0.725762  s :     0.725762
      pz      :     0.022410  p :     0.043334
      px      :     0.007515
      py      :     0.013409

SPIN
  0 C s       :     0.024951  s :     0.024951
      pz      :     0.862634  p :     0.870936
      px      :     0.004132
      py      :     0.004170
      dz2     :    -0.000856  d :    -0.010493
      dxz     :    -0.004451
      dyz     :    -0.004446
      dx2y2   :    -0.000375
      dxy     :    -0.000364
      f0      :    -0.000465  f :    -0.000596
      f+1     :     0.000011
      f-1     :     0.000011
      f+2     :    -0.000018
      f-2     :    -0.000015
      f+3     :    -0.000119
      f-3     :    -0.000000
  1 H s       :     0.016352  s :     0.016352
      pz      :     0.019404  p :     0.022034
      px      :    -0.000247
      py      :     0.002877
  2 H s       :     0.016437  s :     0.016437
      pz      :     0.019347  p :     0.021971
      px      :     0.002091
      py      :     0.000533
  3 H s       :     0.016437  s :     0.016437
      pz      :     0.019347  p :     0.021971
      px      :     0.002091
      py      :     0.000533


                     *******************************
                     * LOEWDIN POPULATION ANALYSIS *
                     *******************************

-------------------------------------------
LOEWDIN ATOMIC CHARGES AND SPIN POPULATIONS
-------------------------------------------
   0 C :    0.055605    0.835747
   1 H :   -0.018565    0.054750
   2 H :   -0.018520    0.054751
   3 H :   -0.018520    0.054751

----------------------------------------------------
LOEWDIN REDUCED ORBITAL CHARGES AND SPIN POPULATIONS
----------------------------------------------------
CHARGE
  0 C s       :     2.906699  s :     2.906699
      pz      :     0.767405  p :     2.905388
      px      :     1.068986
      py      :     1.068997
      dz2     :     0.003972  d :     0.121033
      dxz     :     0.029195
      dyz     :     0.029198
      dx2y2   :     0.029334
      dxy     :     0.029335
      f0      :     0.001463  f :     0.011274
      f+1     :     0.000050
      f-1     :     0.000050
      f+2     :     0.003670
      f-2     :     0.003673
      f+3     :     0.002370
      f-3     :     0.000000
  1 H s       :     0.750389  s :     0.750389
      pz      :     0.070762  p :     0.268176
      px      :     0.121290
      py      :     0.076124
  2 H s       :     0.750362  s :     0.750362
      pz      :     0.070746  p :     0.268158
      px      :     0.087407
      py      :     0.110004
  3 H s       :     0.750362  s :     0.750362
      pz      :     0.070746  p :     0.268158
      px      :     0.087407
      py      :     0.110004

SPIN
  0 C s       :     0.112051  s :     0.112051
      pz      :     0.693817  p :     0.733831
      px      :     0.020022
      py      :     0.019992
      dz2     :     0.000949  d :    -0.009942
      dxz     :    -0.003855
      dyz     :    -0.003858
      dx2y2   :    -0.001596
      dxy     :    -0.001583
      f0      :    -0.000198  f :    -0.000192
      f+1     :     0.000045
      f-1     :     0.000045
      f+2     :    -0.000198
      f-2     :    -0.000196
      f+3     :     0.000308
      f-3     :    -0.000000
  1 H s       :    -0.001212  s :    -0.001212
      pz      :     0.053906  p :     0.055962
      px      :     0.002986
      py      :    -0.000930
  2 H s       :    -0.001222  s :    -0.001222
      pz      :     0.053910  p :     0.055973
      px      :     0.000046
      py      :     0.002017
  3 H s       :    -0.001222  s :    -0.001222
      pz      :     0.053910  p :     0.055973
      px      :     0.000046
      py      :     0.002017


                      *****************************
                      * MAYER POPULATION ANALYSIS *
                      *****************************

  NA   - Mulliken gross atomic population
  ZA   - Total nuclear charge
  QA   - Mulliken gross atomic charge
  VA   - Mayer's total valence
  BVA  - Mayer's bonded valence
  FA   - Mayer's free valence

  ATOM       NA         ZA         QA         VA         BVA        FA
  0 C      6.6923     6.0000    -0.6923     3.8242     3.0445     0.7798
  1 H      0.7695     1.0000     0.2305     1.0096     1.0082     0.0014
  2 H      0.7691     1.0000     0.2309     1.0091     1.0077     0.0014
  3 H      0.7691     1.0000     0.2309     1.0091     1.0077     0.0014

  Mayer bond orders larger than 0.100000
B(  0-C ,  1-H ) :   1.0151 B(  0-C ,  2-H ) :   1.0147 B(  0-C ,  3-H ) :   1.0147 


-------
TIMINGS
-------

Total SCF time: 0 days 0 hours 0 min 7 sec 

Total time                  ....       7.371 sec
Sum of individual times     ....       6.738 sec  ( 91.4%)

Fock matrix formation       ....       5.572 sec  ( 75.6%)
  Split-RI-J                ....       0.770 sec  ( 13.8% of F)
  Chain of spheres X        ....       1.312 sec  ( 23.6% of F)
  XC integration            ....       1.089 sec  ( 19.5% of F)
    Basis function eval.    ....       0.054 sec  (  5.0% of XC)
    Density eval.           ....       0.052 sec  (  4.7% of XC)
    XC-Functional eval.     ....       0.056 sec  (  5.1% of XC)
    XC-Potential eval.      ....       0.076 sec  (  7.0% of XC)
Diagonalization             ....       0.151 sec  (  2.0%)
Density matrix formation    ....       0.007 sec  (  0.1%)
Population analysis         ....       0.156 sec  (  2.1%)
Initial guess               ....       0.114 sec  (  1.5%)
Orbital Transformation      ....       0.000 sec  (  0.0%)
Orbital Orthonormalization  ....       0.000 sec  (  0.0%)
DIIS solution               ....       0.331 sec  (  4.5%)
Grid generation             ....       0.409 sec  (  5.5%)

Maximum memory used throughout the entire SCF-calculation: 58.5 MB


-------------------------------------------------------------------------------
                          DFT DISPERSION CORRECTION                            
                                                                               
                              DFTD3 V3.1  Rev 1                                
                              USING zero damping                               
-------------------------------------------------------------------------------
The omegaB97X-D3 functional is recognized. Fit by Chai et al.
Active option DFTDOPT                   ...         3   

molecular C6(AA) [au] = 106.958204 


            DFT-D V3
 parameters
 s6 scaling factor         :     1.0000 
 rs6 scaling factor        :     1.2810 
 s8 scaling factor         :     1.0000 
 rs8 scaling factor        :     1.0940 
 Damping factor alpha6     :    14.0000 
 Damping factor alpha8     :    16.0000 
 ad hoc parameters k1-k3   :    16.0000     1.3333    -4.0000 

 Edisp/kcal,au: -0.004533283295  -0.000007224246 
 E6   /kcal   :  -0.000705070 
 E8   /kcal   :  -0.003828214 
 % E8         :  84.446819157 

-------------------------   ----------------
Dispersion correction           -0.000007224
-------------------------   ----------------


-------------------------   --------------------
FINAL SINGLE POINT ENERGY       -39.809396794767
-------------------------   --------------------



           ************************************************************
           *        Program running with 18 parallel MPI-processes    *
           *              working on a common directory               *
           ************************************************************
------------------------------------------------------------------------------
                         ORCA SCF GRADIENT CALCULATION
------------------------------------------------------------------------------

 ... reading COSX grid (gridx3)
Gradient of the Kohn-Sham DFT energy:
Kohn-Sham wavefunction type      ... UKS
Hartree-Fock exchange scaling    ...    0.196
Number of operators              ...    2
Number of atoms                  ...    4
Basis set dimensions             ...   64
Integral neglect threshold       ... 2.5e-11
Integral primitive cutoff        ... 2.5e-12
SHARK Integral package           ... ON

Nuc. rep. gradient       (SHARK) ... done (  0.0 sec)
HCore & Overlap gradient (SHARK) ... done (  0.0 sec)
RI-J gradient            (SHARK) ... done (  0.1 sec)
COSX-gradient                    ... done (  0.1 sec)
Exchange-correlation gradient    ... done
Dispersion correction            ... done

------------------
CARTESIAN GRADIENT
------------------

WARNING: THERE ARE 3 CONSTRAINED CARTESIAN COORDINATES
   1   C   :   -0.000067915   -0.000000024    0.063850843
   2   H   :   -0.024005483    0.000000028   -0.021332521
   3   H   :    0.011993149   -0.020753391   -0.021259250
   4   H   :    0.011993139    0.020753415   -0.021259221

Difference to translation invariance:
           :   -0.0000871108    0.0000000284   -0.0000001488

Difference to rotation invariance:
           :    0.0000000030    0.0001508176    0.0000000131

Norm of the cartesian gradient     ...    0.0846242463
RMS gradient                       ...    0.0244289157
MAX gradient                       ...    0.0638508428

-------
TIMINGS
-------

Total SCF gradient time            ...        0.634 sec

One electron gradient       ....       0.007 sec  (  1.2%)
RI-J Coulomb gradient       ....       0.132 sec  ( 20.9%)
COSX gradient               ....       0.117 sec  ( 18.5%)
XC gradient                 ....       0.078 sec  ( 12.2%)

Maximum memory used throughout the entire SCFGRAD-calculation: 33.6 MB
------------------------------------------------------------------------------
                         ORCA GEOMETRY RELAXATION STEP
------------------------------------------------------------------------------

Reading the OPT-File                    .... done
Getting information on internals        .... done
Copying old internal coords+grads       .... done
Making the new internal coordinates     .... (new redundants).... done
Validating the new internal coordinates .... (new redundants).... done
Calculating the B-matrix                .... done
Calculating the G,G- and P matrices     .... done
Transforming gradient to internals      .... done
Projecting the internal gradient        .... done
Number of atoms                         ....   4
Number of internal coordinates          ....   7
Current Energy                          ....   -39.809396795 Eh
Current gradient norm                   ....     0.084624246 Eh/bohr
Maximum allowed component of the step   ....  0.300
Current trust radius                    ....  0.300
Evaluating the initial hessian          ....  (Almloef) done
Projecting the Hessian                  .... done
Forming the augmented Hessian           .... done
Diagonalizing the augmented Hessian     .... done
Last element of RFO vector              ....  0.998590955
Lowest eigenvalues of augmented Hessian:
 -0.001057985  0.373574723  0.373574723  0.374632708 1000.000000000
Length of the computed step             ....  0.053141867
The final length of the internal step   ....  0.053141867
Converting the step to cartesian space:
 Initial RMS(Int)=    0.0200857378
Transforming coordinates:
 Iter   0:  RMS(Cart)=    0.0140693672 RMS(Int)=    0.0200857379
 Iter   1:  RMS(Cart)=    0.0000000000 RMS(Int)=    0.0000000000
Imposing constraints:
 Iter   0:  RMS(Cart)=    0.0000000006 RMS(Int)=    0.0000000009
CONVERGED
done
Storing new coordinates                 .... done

                                .--------------------.
          ----------------------|Geometry convergence|-------------------------
          Item                value                   Tolerance       Converged
          ---------------------------------------------------------------------
          RMS gradient        0.0075247744            0.0001000000      NO
          MAX gradient        0.0114995554            0.0003000000      NO
          RMS step            0.0200857378            0.0020000000      NO
          MAX step            0.0306955458            0.0040000000      NO
          ........................................................
          Max(Bonds)      0.0162      Max(Angles)    0.00
          Max(Dihed)        0.00      Max(Improp)    0.00
          ---------------------------------------------------------------------

The optimization has not yet converged - more geometry cycles are needed


    ---------------------------------------------------------------------------
                         Redundant Internal Coordinates
                            (Angstroem and degrees)

        Definition                    Value    dE/dq     Step     New-Value
    ----------------------------------------------------------------------------
     1. B(H   1,C   0)                1.0800 -0.011484  0.0162    1.0962   
     2. B(H   2,C   0)                1.0800 -0.011500  0.0162    1.0962   
     3. B(H   3,C   0)                1.0800 -0.011500  0.0162    1.0962   
     4. A(H   2,C   0,H   3)          100.50 -0.042208    0.00    100.50 C 
     5. A(H   1,C   0,H   2)          100.50 -0.018794    0.00    100.50 C 
     6. A(H   1,C   0,H   3)          100.50 -0.018794    0.00    100.50 C 
     7. I(H   1,H   3,H   2,C   0)     73.44  0.037694   -0.00     73.44   
    ----------------------------------------------------------------------------

         *************************************************************
         *                GEOMETRY OPTIMIZATION CYCLE   2            *
         *************************************************************
---------------------------------
CARTESIAN COORDINATES (ANGSTROEM)
---------------------------------
  C      0.000007    0.000000    0.005605
  H      0.973210    0.000000   -0.498951
  H     -0.486608    0.842838   -0.498955
  H     -0.486608   -0.842838   -0.498955

----------------------------
CARTESIAN COORDINATES (A.U.)
----------------------------
  NO LB      ZA    FRAG     MASS         X           Y           Z
   0 C     6.0000    0    12.011    0.000013    0.000000    0.010591
   1 H     1.0000    0     1.008    1.839100    0.000000   -0.942881
   2 H     1.0000    0     1.008   -0.919556    1.592733   -0.942887
   3 H     1.0000    0     1.008   -0.919556   -1.592733   -0.942887

--------------------------------
INTERNAL COORDINATES (ANGSTROEM)
--------------------------------
 C      0   0   0     0.000000000000     0.00000000     0.00000000
 H      1   0   0     1.096221048869     0.00000000     0.00000000
 H      1   2   0     1.096243363720   100.50000004     0.00000000
 H      1   2   3     1.096243383203   100.50000004   102.87624638

---------------------------
INTERNAL COORDINATES (A.U.)
---------------------------
 C      0   0   0     0.000000000000     0.00000000     0.00000000
 H      1   0   0     2.071557564602     0.00000000     0.00000000
 H      1   2   0     2.071599733559   100.50000004     0.00000000
 H      1   2   3     2.071599770376   100.50000004   102.87624638



           ************************************************************
           *        Program running with 18 parallel MPI-processes    *
           *              working on a common directory               *
           ************************************************************
------------------------------------------------------------------------------
                   ___                                                        
                  /   \      - P O W E R E D   B Y -                         
                 /     \                                                     
                 |  |  |   _    _      __       _____    __    __             
                 |  |  |  | |  | |    /  \     |  _  \  |  |  /  |          
                  \  \/   | |  | |   /    \    | | | |  |  | /  /          
                 / \  \   | |__| |  /  /\  \   | |_| |  |  |/  /          
                |  |  |   |  __  | /  /__\  \  |    /   |      \           
                |  |  |   | |  | | |   __   |  |    \   |  |\   \          
                \     /   | |  | | |  |  |  |  | |\  \  |  | \   \       
                 \___/    |_|  |_| |__|  |__|  |_| \__\ |__|  \__/        
                                                                              
                      - O R C A' S   B I G   F R I E N D -                    
                                      &                                       
                       - I N T E G R A L  F E E D E R -                       
                                                                              
 v1 FN, 2020, v2 2021                                                         
------------------------------------------------------------------------------


Reading SHARK input file /beegfs/scratch/ispackman/PFAS_EPR_calcs/benchmark/JChemEd_CF3_radical/CH3_radical_100.5_degrees_IN-PROGRESS/CH3_radical_100.5_degrees.SHARKINP.tmp ... ok
----------------------
SHARK INTEGRAL PACKAGE
----------------------

Number of atoms                             ...      4
Number of basis functions                   ...     64
Number of shells                            ...     28
Maximum angular momentum                    ...      3
Integral batch strategy                     ... SHARK/LIBINT Hybrid
RI-J (if used) integral strategy            ... SPLIT-RIJ (Revised 2003 algorithm where possible)
Printlevel                                  ...      1
Contraction scheme used                     ... SEGMENTED contraction
Coulomb Range Separation                    ... NOT USED
Exchange Range Separation                   ... Long Range
   Mu parameter                             ...  0.250000
   Scaling (regular/separated)              ...  0.195728  0.804272
Finite Nucleus Model                        ... NOT USED
Auxiliary Coulomb fitting basis             ... AVAILABLE
   # of basis functions in Aux-J            ...     82
   # of shells in Aux-J                     ...     30
   Maximum angular momentum in Aux-J        ...      4
Auxiliary J/K fitting basis                 ... NOT available
Auxiliary Correlation fitting basis         ... NOT available
Auxiliary 'external' fitting basis          ... NOT available
Integral threshold                          ...     2.500000e-11
Primitive cut-off                           ...     2.500000e-12
Primitive pair pre-selection threshold      ...     2.500000e-12

Calculating pre-screening integrals         ... done (  0.0 sec) Dimension = 28
Organizing shell pair data                  ... done (  0.0 sec)
Shell pair information
Total number of shell pairs                 ...       406
Shell pairs after pre-screening             ...       406
Total number of primitive shell pairs       ...       977
Primitive shell pairs kept                  ...       947
          la=0 lb=0:    120 shell pairs
          la=1 lb=0:    135 shell pairs
          la=1 lb=1:     45 shell pairs
          la=2 lb=0:     45 shell pairs
          la=2 lb=1:     27 shell pairs
          la=2 lb=2:      6 shell pairs
          la=3 lb=0:     15 shell pairs
          la=3 lb=1:      9 shell pairs
          la=3 lb=2:      3 shell pairs
          la=3 lb=3:      1 shell pairs

Calculating one electron integrals          ... done (  0.0 sec)
Calculating RI/J V-Matrix + Cholesky decomp.... done (  0.1 sec)
Calculating Nuclear repulsion               ... done (  0.0 sec) ENN=      9.630780206863 Eh

SHARK setup successfully completed in   0.3 seconds

Maximum memory used throughout the entire GTOINT-calculation: 14.0 MB


           ************************************************************
           *        Program running with 18 parallel MPI-processes    *
           *              working on a common directory               *
           ************************************************************

Diagonalization of the overlap matrix:
Smallest eigenvalue                        ... 4.491e-05
Time for diagonalization                   ...    0.002 sec
Threshold for overlap eigenvalues          ... 1.000e-08
Number of eigenvalues below threshold      ... 0
Time for construction of square roots      ...    0.012 sec
Total time needed                          ...    0.014 sec

-------------------
DFT GRID GENERATION
-------------------

General Integration Accuracy     IntAcc      ... 4.388
Radial Grid Type                 RadialGrid  ... OptM3 with GC (2021)
Angular Grid (max. ang.)         AngularGrid ... 4 (Lebedev-302)
Angular grid pruning method      GridPruning ... 4 (adaptive)
Weight generation scheme         WeightScheme... Becke
Basis function cutoff            BFCut       ... 1.0000e-11
Integration weight cutoff        WCut        ... 1.0000e-14
Angular grids for H and He will be reduced by one unit
Partially contracted basis set               ... off
Rotationally invariant grid construction     ... off

Total number of grid points                  ...    17044
Total number of batches                      ...      269
Average number of points per batch           ...       63
Average number of grid points per atom       ...     4261
Time for grid setup =    0.089 sec

--------------------
COSX GRID GENERATION
--------------------

GRIDX 1
-------
General Integration Accuracy     IntAcc      ... 3.816
Radial Grid Type                 RadialGrid  ... OptM3 with GC (2021)
Angular Grid (max. ang.)         AngularGrid ... 1 (Lebedev-50)
Angular grid pruning method      GridPruning ... 4 (adaptive)
Weight generation scheme         WeightScheme... Becke
Basis function cutoff            BFCut       ... 1.0000e-11
Integration weight cutoff        WCut        ... 1.0000e-14
Angular grids for H and He will be reduced by one unit
Partially contracted basis set               ... on
Rotationally invariant grid construction     ... off

Total number of grid points                  ...     2149
Total number of batches                      ...       36
Average number of points per batch           ...       59
Average number of grid points per atom       ...      537
UseSFitting                                  ... on

GRIDX 2
-------
General Integration Accuracy     IntAcc      ... 4.020
Radial Grid Type                 RadialGrid  ... OptM3 with GC (2021)
Angular Grid (max. ang.)         AngularGrid ... 2 (Lebedev-110)
Angular grid pruning method      GridPruning ... 4 (adaptive)
Weight generation scheme         WeightScheme... Becke
Basis function cutoff            BFCut       ... 1.0000e-11
Integration weight cutoff        WCut        ... 1.0000e-14
Angular grids for H and He will be reduced by one unit
Partially contracted basis set               ... on
Rotationally invariant grid construction     ... off

Total number of grid points                  ...     5040
Total number of batches                      ...       81
Average number of points per batch           ...       62
Average number of grid points per atom       ...     1260
UseSFitting                                  ... on

GRIDX 3
-------
General Integration Accuracy     IntAcc      ... 4.338
Radial Grid Type                 RadialGrid  ... OptM3 with GC (2021)
Angular Grid (max. ang.)         AngularGrid ... 3 (Lebedev-194)
Angular grid pruning method      GridPruning ... 4 (adaptive)
Weight generation scheme         WeightScheme... Becke
Basis function cutoff            BFCut       ... 1.0000e-11
Integration weight cutoff        WCut        ... 1.0000e-14
Angular grids for H and He will be reduced by one unit
Partially contracted basis set               ... on
Rotationally invariant grid construction     ... off

Total number of grid points                  ...    11712
Total number of batches                      ...      185
Average number of points per batch           ...       63
Average number of grid points per atom       ...     2928
UseSFitting                                  ... on

Time for X-Grid setup             =    0.276 sec

--------------
SCF ITERATIONS
--------------
ITER       Energy         Delta-E        Max-DP      RMS-DP      [F,P]     Damp
               ***  Starting incremental Fock matrix formation  ***
  0    -39.8097743340   0.000000000000 0.01233467  0.00020637  0.0040034 0.7000
  1    -39.8098233354  -0.000049001485 0.01080447  0.00018077  0.0029348 0.7000
                               ***Turning on DIIS***
  2    -39.8098561167  -0.000032781226 0.02795190  0.00046761  0.0021376 0.0000
  3    -39.8099281068  -0.000071990088 0.00557060  0.00009594  0.0006754 0.0000
               *** Restarting incremental Fock matrix formation ***
                                   *** Resetting DIIS ***
  4    -39.8099314930  -0.000003386278 0.00054242  0.00001710  0.0003278 0.0000
  5    -39.8099320512  -0.000000558139 0.00044507  0.00000866  0.0001946 0.0000
  6    -39.8099322839  -0.000000232691 0.00012872  0.00000395  0.0000412 0.0000
  7    -39.8099323034  -0.000000019504 0.00005511  0.00000128  0.0000102 0.0000
                 **** Energy Check signals convergence ****

               *****************************************************
               *                     SUCCESS                       *
               *           SCF CONVERGED AFTER   8 CYCLES          *
               *****************************************************

Old exchange energy                            =     -2.169066374 Eh
New exchange energy                            =     -2.169069494 Eh
Exchange energy change after final integration =     -0.000003120 Eh
Total energy after final integration           =    -39.809935425 Eh
Final COS-X integration done in                =     0.121 sec
Total Energy       :          -39.80993542 Eh           -1083.28342 eV
  Last Energy change         ...   -1.1511e-09  Tolerance :   1.0000e-08
  Last MAX-Density change    ...    0.0000e+00  Tolerance :   1.0000e-07
             **** THE GBW FILE WAS UPDATED (/beegfs/scratch/ispackman/PFAS_EPR_calcs/benchmark/JChemEd_CF3_radical/CH3_radical_100.5_degrees_IN-PROGRESS/CH3_radical_100.5_degrees.gbw) ****
             **** DENSITY /beegfs/scratch/ispackman/PFAS_EPR_calcs/benchmark/JChemEd_CF3_radical/CH3_radical_100.5_degrees_IN-PROGRESS/CH3_radical_100.5_degrees.scfp WAS UPDATED ****
             **** ENERGY FILE WAS UPDATED (/beegfs/scratch/ispackman/PFAS_EPR_calcs/benchmark/JChemEd_CF3_radical/CH3_radical_100.5_degrees_IN-PROGRESS/CH3_radical_100.5_degrees.en.tmp) ****
----------------------
UHF SPIN CONTAMINATION
----------------------

Warning: in a DFT calculation there is little theoretical justification to 
         calculate <S**2> as in Hartree-Fock theory. We will do it anyways
         but you should keep in mind that the values have only limited relevance

Expectation value of <S**2>     :     0.753112
Ideal value S*(S+1) for S=0.5   :     0.750000
Deviation                       :     0.003112

             **** THE GBW FILE WAS UPDATED (/beegfs/scratch/ispackman/PFAS_EPR_calcs/benchmark/JChemEd_CF3_radical/CH3_radical_100.5_degrees_IN-PROGRESS/CH3_radical_100.5_degrees.gbw) ****
             **** DENSITY /beegfs/scratch/ispackman/PFAS_EPR_calcs/benchmark/JChemEd_CF3_radical/CH3_radical_100.5_degrees_IN-PROGRESS/CH3_radical_100.5_degrees.scfp WAS UPDATED ****
Total SCF time: 0 days 0 hours 0 min 7 sec 

Maximum memory used throughout the entire SCF-calculation: 58.5 MB


-------------------------------------------------------------------------------
                          DFT DISPERSION CORRECTION                            
                                                                               
                              DFTD3 V3.1  Rev 1                                
                              USING zero damping                               
-------------------------------------------------------------------------------
-------------------------   ----------------
Dispersion correction           -0.000008142
-------------------------   ----------------


-------------------------   --------------------
FINAL SINGLE POINT ENERGY       -39.809943566754
-------------------------   --------------------



           ************************************************************
           *        Program running with 18 parallel MPI-processes    *
           *              working on a common directory               *
           ************************************************************
------------------------------------------------------------------------------
                         ORCA SCF GRADIENT CALCULATION
------------------------------------------------------------------------------

 ... reading COSX grid (gridx3)
Gradient of the Kohn-Sham DFT energy:
Kohn-Sham wavefunction type      ... UKS
Hartree-Fock exchange scaling    ...    0.196
Number of operators              ...    2
Number of atoms                  ...    4
Basis set dimensions             ...   64
Integral neglect threshold       ... 2.5e-11
Integral primitive cutoff        ... 2.5e-12
SHARK Integral package           ... ON

Nuc. rep. gradient       (SHARK) ... done (  0.0 sec)
HCore & Overlap gradient (SHARK) ... done (  0.0 sec)
RI-J gradient            (SHARK) ... done (  0.1 sec)
COSX-gradient                    ... done (  0.1 sec)
Exchange-correlation gradient    ... done
Dispersion correction            ... done

------------------
CARTESIAN GRADIENT
------------------

WARNING: THERE ARE 3 CONSTRAINED CARTESIAN COORDINATES
   1   C   :   -0.000068524    0.000000010    0.076189811
   2   H   :   -0.013800790    0.000000026   -0.025440547
   3   H   :    0.006889618   -0.011913382   -0.025377484
   4   H   :    0.006889597    0.011913378   -0.025377494

Difference to translation invariance:
           :   -0.0000900994    0.0000000324   -0.0000057138

Difference to rotation invariance:
           :    0.0000000377    0.0001342070    0.0000000189

Norm of the cartesian gradient     ...    0.0911559095
RMS gradient                       ...    0.0263144445
MAX gradient                       ...    0.0761898114

-------
TIMINGS
-------

Total SCF gradient time            ...        0.610 sec

One electron gradient       ....       0.006 sec  (  1.0%)
RI-J Coulomb gradient       ....       0.114 sec  ( 18.7%)
COSX gradient               ....       0.125 sec  ( 20.5%)
XC gradient                 ....       0.064 sec  ( 10.5%)

Maximum memory used throughout the entire SCFGRAD-calculation: 33.6 MB
------------------------------------------------------------------------------
                         ORCA GEOMETRY RELAXATION STEP
------------------------------------------------------------------------------

Reading the OPT-File                    .... done
Getting information on internals        .... done
Copying old internal coords+grads       .... done
Making the new internal coordinates     .... (new redundants).... done
Validating the new internal coordinates .... (new redundants).... done
Calculating the B-matrix                .... done
Calculating the G,G- and P matrices     .... done
Transforming gradient to internals      .... done
Projecting the internal gradient        .... done
Number of atoms                         ....   4
Number of internal coordinates          ....   7
Current Energy                          ....   -39.809943567 Eh
Current gradient norm                   ....     0.091155910 Eh/bohr
Maximum allowed component of the step   ....  0.300
Current trust radius                    ....  0.300
Updating the Hessian (BFGS)             .... done
Forming the augmented Hessian           .... done
Diagonalizing the augmented Hessian     .... done
Last element of RFO vector              ....  0.999996571
Lowest eigenvalues of augmented Hessian:
 -0.000002449  0.357038202  0.373574723  0.373577027 999.999999995
Length of the computed step             ....  0.002618972
The final length of the internal step   ....  0.002618972
Converting the step to cartesian space:
 Initial RMS(Int)=    0.0009898783
Transforming coordinates:
 Iter   0:  RMS(Cart)=    0.0006933625 RMS(Int)=    0.0009898783
 Iter   1:  RMS(Cart)=    0.0000000000 RMS(Int)=    0.0000000000
Imposing constraints:
 Iter   0:  RMS(Cart)=    0.0000000002 RMS(Int)=    0.0000000005
CONVERGED
done
Storing new coordinates                 .... done

                                .--------------------.
          ----------------------|Geometry convergence|-------------------------
          Item                value                   Tolerance       Converged
          ---------------------------------------------------------------------
          Energy change      -0.0005467720            0.0000050000      NO
          RMS gradient        0.0003534244            0.0001000000      NO
          MAX gradient        0.0005442301            0.0003000000      NO
          RMS step            0.0009898783            0.0020000000      YES
          MAX step            0.0015243232            0.0040000000      YES
          ........................................................
          Max(Bonds)      0.0008      Max(Angles)    0.00
          Max(Dihed)        0.00      Max(Improp)    0.00
          ---------------------------------------------------------------------

The optimization has not yet converged - more geometry cycles are needed


    ---------------------------------------------------------------------------
                         Redundant Internal Coordinates
                            (Angstroem and degrees)

        Definition                    Value    dE/dq     Step     New-Value
    ----------------------------------------------------------------------------
     1. B(H   1,C   0)                1.0962 -0.000531  0.0008    1.0970   
     2. B(H   2,C   0)                1.0962 -0.000544  0.0008    1.0971   
     3. B(H   3,C   0)                1.0962 -0.000544  0.0008    1.0970   
     4. A(H   2,C   0,H   3)          100.50 -0.041343    0.00    100.50 C 
     5. A(H   1,C   0,H   2)          100.50 -0.018411    0.00    100.50 C 
     6. A(H   1,C   0,H   3)          100.50 -0.018411    0.00    100.50 C 
     7. I(H   1,H   3,H   2,C   0)     73.44  0.036925   -0.00     73.44   
    ----------------------------------------------------------------------------

         *************************************************************
         *                GEOMETRY OPTIMIZATION CYCLE   3            *
         *************************************************************
---------------------------------
CARTESIAN COORDINATES (ANGSTROEM)
---------------------------------
  C      0.000013   -0.000000    0.005881
  H      0.973912   -0.000000   -0.499041
  H     -0.486962    0.843458   -0.499048
  H     -0.486962   -0.843458   -0.499048

----------------------------
CARTESIAN COORDINATES (A.U.)
----------------------------
  NO LB      ZA    FRAG     MASS         X           Y           Z
   0 C     6.0000    0    12.011    0.000024   -0.000000    0.011113
   1 H     1.0000    0     1.008    1.840428   -0.000000   -0.943051
   2 H     1.0000    0     1.008   -0.920226    1.593904   -0.943063
   3 H     1.0000    0     1.008   -0.920226   -1.593904   -0.943063

--------------------------------
INTERNAL COORDINATES (ANGSTROEM)
--------------------------------
 C      0   0   0     0.000000000000     0.00000000     0.00000000
 H      1   0   0     1.097008104709     0.00000000     0.00000000
 H      1   2   0     1.097050000809   100.50000007     0.00000000
 H      1   2   3     1.097049980361   100.50000007   102.87624641

---------------------------
INTERNAL COORDINATES (A.U.)
---------------------------
 C      0   0   0     0.000000000000     0.00000000     0.00000000
 H      1   0   0     2.073044884591     0.00000000     0.00000000
 H      1   2   0     2.073124056747   100.50000007     0.00000000
 H      1   2   3     2.073124018107   100.50000007   102.87624641



           ************************************************************
           *        Program running with 18 parallel MPI-processes    *
           *              working on a common directory               *
           ************************************************************
------------------------------------------------------------------------------
                   ___                                                        
                  /   \      - P O W E R E D   B Y -                         
                 /     \                                                     
                 |  |  |   _    _      __       _____    __    __             
                 |  |  |  | |  | |    /  \     |  _  \  |  |  /  |          
                  \  \/   | |  | |   /    \    | | | |  |  | /  /          
                 / \  \   | |__| |  /  /\  \   | |_| |  |  |/  /          
                |  |  |   |  __  | /  /__\  \  |    /   |      \           
                |  |  |   | |  | | |   __   |  |    \   |  |\   \          
                \     /   | |  | | |  |  |  |  | |\  \  |  | \   \       
[...]
  ZA   - Total nuclear charge
  QA   - Mulliken gross atomic charge
  VA   - Mayer's total valence
  BVA  - Mayer's bonded valence
  FA   - Mayer's free valence

  ATOM       NA         ZA         QA         VA         BVA        FA
  0 C      6.6683     6.0000    -0.6683     3.8323     3.0412     0.7911
  1 H      0.7775     1.0000     0.2225     1.0154     1.0142     0.0012
  2 H      0.7771     1.0000     0.2229     1.0148     1.0136     0.0012
  3 H      0.7771     1.0000     0.2229     1.0148     1.0136     0.0012

  Mayer bond orders larger than 0.100000
B(  0-C ,  1-H ) :   1.0141 B(  0-C ,  2-H ) :   1.0136 B(  0-C ,  3-H ) :   1.0136 


-------
TIMINGS
-------

Total SCF time: 0 days 0 hours 0 min 3 sec 

Total time                  ....       3.782 sec
Sum of individual times     ....       3.155 sec  ( 83.4%)

Fock matrix formation       ....       2.496 sec  ( 66.0%)
  Split-RI-J                ....       0.454 sec  ( 18.2% of F)
  Chain of spheres X        ....       0.666 sec  ( 26.7% of F)
  XC integration            ....       0.442 sec  ( 17.7% of F)
    Basis function eval.    ....       0.022 sec  (  4.9% of XC)
    Density eval.           ....       0.020 sec  (  4.6% of XC)
    XC-Functional eval.     ....       0.022 sec  (  4.9% of XC)
    XC-Potential eval.      ....       0.025 sec  (  5.7% of XC)
Diagonalization             ....       0.066 sec  (  1.7%)
Density matrix formation    ....       0.009 sec  (  0.2%)
Population analysis         ....       0.171 sec  (  4.5%)
Initial guess               ....       0.006 sec  (  0.1%)
Orbital Transformation      ....       0.000 sec  (  0.0%)
Orbital Orthonormalization  ....       0.002 sec  (  0.0%)
DIIS solution               ....       0.058 sec  (  1.5%)
Grid generation             ....       0.349 sec  (  9.2%)

Maximum memory used throughout the entire SCF-calculation: 58.5 MB


-------------------------------------------------------------------------------
                          DFT DISPERSION CORRECTION                            
                                                                               
                              DFTD3 V3.1  Rev 1                                
                              USING zero damping                               
-------------------------------------------------------------------------------
The omegaB97X-D3 functional is recognized. Fit by Chai et al.
Active option DFTDOPT                   ...         3   

molecular C6(AA) [au] = 107.001770 


            DFT-D V3
 parameters
 s6 scaling factor         :     1.0000 
 rs6 scaling factor        :     1.2810 
 s8 scaling factor         :     1.0000 
 rs8 scaling factor        :     1.0940 
 Damping factor alpha6     :    14.0000 
 Damping factor alpha8     :    16.0000 
 ad hoc parameters k1-k3   :    16.0000     1.3333    -4.0000 

 Edisp/kcal,au: -0.005140657309  -0.000008192158 
 E6   /kcal   :  -0.000799611 
 E8   /kcal   :  -0.004341046 
 % E8         :  84.445347316 

-------------------------   ----------------
Dispersion correction           -0.000008192
-------------------------   ----------------


-------------------------   --------------------
FINAL SINGLE POINT ENERGY       -39.809944874405
-------------------------   --------------------

                                *** OPTIMIZATION RUN DONE ***

                            ***************************************
                            *     ORCA property calculations      *
                            ***************************************

                                    ---------------------
                                    Active property flags
                                    ---------------------
   (+) Dipole Moment


------------------------------------------------------------------------------
                       ORCA ELECTRIC PROPERTIES CALCULATION
------------------------------------------------------------------------------

Dipole Moment Calculation                       ... on
Quadrupole Moment Calculation                   ... off
Polarizability Calculation                      ... off
GBWName                                         ... /beegfs/scratch/ispackman/PFAS_EPR_calcs/benchmark/JChemEd_CF3_radical/CH3_radical_100.5_degrees_IN-PROGRESS/CH3_radical_100.5_degrees.gbw
Electron density                                ... /beegfs/scratch/ispackman/PFAS_EPR_calcs/benchmark/JChemEd_CF3_radical/CH3_radical_100.5_degrees_IN-PROGRESS/CH3_radical_100.5_degrees.scfp
The origin for moment calculation is the CENTER OF MASS  = ( 0.000018,  0.000000 -0.180782)

-------------
DIPOLE MOMENT
-------------
                                X             Y             Z
Electronic contribution:      0.00000      -0.00000       0.83563
Nuclear contribution   :     -0.00004      -0.00000      -1.13534
                        -----------------------------------------
Total Dipole Moment    :     -0.00004      -0.00000      -0.29971
                        -----------------------------------------
Magnitude (a.u.)       :      0.29971
Magnitude (Debye)      :      0.76179



--------------------
Rotational spectrum 
--------------------
 
Rotational constants in cm-1:     8.222443     8.222136     5.876653 
Rotational constants in MHz : 246502.626518 246493.429682 176177.627410 

 Dipole components along the rotational axes: 
x,y,z [a.u.] :     0.000000    -0.000049    -0.299707 
x,y,z [Debye]:     0.000000    -0.000126    -0.761793 

 


           ************************************************************
           *        Program running with 18 parallel MPI-processes    *
           *              working on a common directory               *
           ************************************************************

-------------------------------------------------------------------------------
                               ORCA SCF HESSIAN
-------------------------------------------------------------------------------

                   --------- SHARK INITIALIZATION DONE ---------

Hessian of the Kohn-Sham DFT energy:
Kohn-Sham wavefunction type                      ... UKS
Hartree-Fock exchange scaling                    ...    0.196
Number of operators                              ...    2
Number of atoms                                  ...    4
Basis set dimensions                             ...   64
Integral neglect threshold                       ... 2.5e-11
Integral primitive cutoff                        ... 2.5e-12

Setting up DFT Hessian calculations              ... 

HESS GRID
---------

General Integration Accuracy     IntAcc      ... 4.629
Radial Grid Type                 RadialGrid  ... OptM3 with GC (2021)
Angular Grid (max. ang.)         AngularGrid ... 5 (Lebedev-434)
Angular grid pruning method      GridPruning ... 4 (adaptive)
Weight generation scheme         WeightScheme... Becke
Basis function cutoff            BFCut       ... 1.0000e-11
Integration weight cutoff        WCut        ... 1.0000e-14
Angular grids for H and He will be reduced by one unit
Partially contracted basis set               ... off
Rotationally invariant grid construction     ... off

Total number of grid points                  ...    27253
Total number of batches                      ...      428
Average number of points per batch           ...       63
Average number of grid points per atom       ...     6813

Building densities                               ... done   (      0.0 sec)
Calculating rho(r) on the grid                   ... done   (      0.1 sec)
Building xc-kernel on the grid                   ... done   (      0.1 sec)
                                                     done   (      0.4 sec)

Nuclear repulsion Hessian  (SHARK)               ... done   (      0.0 sec)

----------------------------------------------
Forming right-hand sides of CP-SCF equations     ...
----------------------------------------------
One electron integral derivatives  (SHARK)       ... done   (      0.0 sec)
Transforming the overlap derivative matrices     ... done   (      0.0 sec)
Making the Q(x) pseudodensities                  ... done   (      0.0 sec)
Adding the E*S(x)*S(y) terms to the Hessian      ... done   (      0.0 sec)
Calculating energy weighted overlap derivatives  ... done   (      0.0 sec)
Two electron integral derivatives (SHARK-RI)     ... done   (      0.5 sec)
Exchange-correlation integral derivatives        ... done   (      0.4 sec)
tr(F(y)Q(x)) contribution to the Hessian         ... done   (      0.0 sec)
Response fock operator R(S(x)) (SHARK-RIJCOSX)   ... done   (      0.5 sec)
XC Response fock operator R(S(x))                ... done   (      0.1 sec)
tr(F(y)S(x)) contribution to the Hessian         ... done   (      0.0 sec)
Transforming and finalizing RHSs                 ... done   (      0.0 sec)

----------------------------------------------
Solving the CP-SCF equations (RIJCOSX)           ...
----------------------------------------------
     CP-SCF ITERATION   0:   1.2283e-01 (   0.3 sec   0/ 12 done)
     CP-SCF ITERATION   1:   2.9961e-02 (   0.3 sec   0/ 12 done)
     CP-SCF ITERATION   2:   1.0429e-02 (   0.3 sec   0/ 12 done)
     CP-SCF ITERATION   3:   3.5590e-03 (   0.3 sec   0/ 12 done)
     CP-SCF ITERATION   4:   5.7919e-04 (   0.3 sec   1/ 12 done)
     CP-SCF ITERATION   5:   1.3174e-04 (   0.3 sec  10/ 12 done)
     CP-SCF ITERATION   6:   2.8420e-05 (   0.2 sec  12/ 12 done)
                    *** THE CP-SCF HAS CONVERGED ***

                                                 ... done   (      2.1 sec)
Forming perturbed density Hessian contributions  ... done   (      0.0 sec)
2nd integral derivative contribs (SHARK-RI)      ... done   (      0.7 sec)
Exchange-correlation Hessian                     ... done   (      0.3 sec)
Dispersion correction in the Hessian             ... done   (      0.1 sec)
Dipole derivatives                               ... (center of mass:  0.000018,  0.000000 -0.180782)done   (      0.1 sec)

Total SCF Hessian time: 0 days 0 hours 0 min 6 sec 

Writing the Hessian file to the disk             ... done


Maximum memory used throughout the entire SCFHESS-calculation: 109.4 MB

-----------------------
VIBRATIONAL FREQUENCIES
-----------------------

Scaling factor for frequencies =  1.000000000  (already applied!)

   0:         0.00 cm**-1
   1:         0.00 cm**-1
   2:         0.00 cm**-1
   3:         0.00 cm**-1
   4:         0.00 cm**-1
   5:         0.00 cm**-1
   6:      1312.18 cm**-1
   7:      1395.47 cm**-1
   8:      1397.61 cm**-1
   9:      3049.11 cm**-1
  10:      3092.92 cm**-1
  11:      3093.11 cm**-1


------------
NORMAL MODES
------------

These modes are the Cartesian displacements weighted by the diagonal matrix
M(i,i)=1/sqrt(m[i]) where m[i] is the mass of the displaced atom
Thus, these vectors are normalized but *not* orthogonal

                  0          1          2          3          4          5    
      0       0.000000   0.000000   0.000000   0.000000   0.000000   0.000000
      1       0.000000   0.000000   0.000000   0.000000   0.000000   0.000000
      2       0.000000   0.000000   0.000000   0.000000   0.000000   0.000000
      3       0.000000   0.000000   0.000000   0.000000   0.000000   0.000000
      4       0.000000   0.000000   0.000000   0.000000   0.000000   0.000000
      5       0.000000   0.000000   0.000000   0.000000   0.000000   0.000000
      6       0.000000   0.000000   0.000000   0.000000   0.000000   0.000000
      7       0.000000   0.000000   0.000000   0.000000   0.000000   0.000000
      8       0.000000   0.000000   0.000000   0.000000   0.000000   0.000000
      9       0.000000   0.000000   0.000000   0.000000   0.000000   0.000000
     10       0.000000   0.000000   0.000000   0.000000   0.000000   0.000000
     11       0.000000   0.000000   0.000000   0.000000   0.000000   0.000000
                  6          7          8          9         10         11    
      0       0.000251  -0.000001   0.072169   0.000282  -0.086248   0.000008
      1       0.000000   0.072191   0.000001  -0.000000   0.000008   0.086230
      2      -0.129138   0.000000   0.000410  -0.053455  -0.000178  -0.000000
      3       0.254958  -0.000003   0.165599  -0.538395   0.728544  -0.000067
      4      -0.000002  -0.739719  -0.000011   0.000000   0.000004   0.045435
      5       0.513974  -0.000006   0.295596   0.213484  -0.354500   0.000033
      6      -0.128974  -0.392267  -0.512775   0.267515   0.149611   0.335948
      7       0.218842  -0.060240  -0.393055  -0.463092  -0.337523  -0.536433
      8       0.512396   0.257476  -0.150238   0.211732   0.178338   0.307534
      9      -0.128972   0.392283  -0.512763   0.267515   0.149549  -0.335974
     10      -0.218842  -0.060250   0.393053   0.463093   0.337425  -0.536495
     11       0.512395  -0.257474  -0.150246   0.211732   0.178282  -0.307566


-----------
IR SPECTRUM
-----------

 Mode   freq       eps      Int      T**2         TX        TY        TZ
       cm**-1   L/(mol*cm) km/mol    a.u.
----------------------------------------------------------------------------
  6:   1312.18   0.001671    8.44  0.000397  (-0.000037 -0.000000  0.019935)
  7:   1395.47   0.000910    4.60  0.000203  ( 0.000000 -0.014263 -0.000000)
  8:   1397.61   0.000924    4.67  0.000206  (-0.014362 -0.000000 -0.000141)
  9:   3049.11   0.000016    0.08  0.000002  ( 0.000124 -0.000000 -0.001270)
 10:   3092.92   0.007050   35.63  0.000711  (-0.026671  0.000002 -0.000054)
 11:   3093.11   0.007218   36.48  0.000728  ( 0.000002  0.026986  0.000000)

* The epsilon (eps) is given for a Dirac delta lineshape.
** The dipole moment derivative (T) already includes vibrational overlap.

The first frequency considered to be a vibration is 6
The total number of vibrations considered is 6


--------------------------
THERMOCHEMISTRY AT 298.15K
--------------------------

Temperature         ... 298.15 K
Pressure            ... 1.00 atm
Total Mass          ... 15.03 AMU

Throughout the following assumptions are being made:
  (1) The electronic state is orbitally nondegenerate
      but the spin degeneracy is treated
  (2) There are no thermally accessible electronically excited states
  (3) Hindered rotations indicated by low frequency modes are not
      treated as such but are treated as vibrations and this may
      cause some error
  (4) All equations used are the standard statistical mechanics
      equations for an ideal gas
  (5) All vibrations are strictly harmonic

freq.    1312.18  E(vib)   ...       0.01 
freq.    1395.47  E(vib)   ...       0.00 
freq.    1397.61  E(vib)   ...       0.00 
freq.    3049.11  E(vib)   ...       0.00 
freq.    3092.92  E(vib)   ...       0.00 
freq.    3093.11  E(vib)   ...       0.00 

------------
INNER ENERGY
------------

The inner energy is: U= E(el) + E(ZPE) + E(vib) + E(rot) + E(trans)
    E(el)   - is the total energy from the electronic structure calculation
              = E(kin-el) + E(nuc-el) + E(el-el) + E(nuc-nuc)
    E(ZPE)  - the the zero temperature vibrational energy from the frequency calculation
    E(vib)  - the the finite temperature correction to E(ZPE) due to population
              of excited vibrational states
    E(rot)  - is the rotational thermal energy
    E(trans)- is the translational thermal energy

Summary of contributions to the inner energy U:
Electronic energy                ...    -39.80994487 Eh
Zero point energy                ...      0.03039165 Eh      19.07 kcal/mol
Thermal vibrational correction   ...      0.00002575 Eh       0.02 kcal/mol
Thermal rotational correction    ...      0.00141627 Eh       0.89 kcal/mol
Thermal translational correction ...      0.00141627 Eh       0.89 kcal/mol
-----------------------------------------------------------------------
Total thermal energy                    -39.77669493 Eh


Summary of corrections to the electronic energy:
(perhaps to be used in another calculation)
Total thermal correction                  0.00285829 Eh       1.79 kcal/mol
Non-thermal (ZPE) correction              0.03039165 Eh      19.07 kcal/mol
-----------------------------------------------------------------------
Total correction                          0.03324994 Eh      20.86 kcal/mol


--------
ENTHALPY
--------

The enthalpy is H = U + kB*T
                kB is Boltzmann's constant
Total free energy                 ...    -39.77669493 Eh 
Thermal Enthalpy correction       ...      0.00094421 Eh       0.59 kcal/mol
-----------------------------------------------------------------------
Total Enthalpy                    ...    -39.77575072 Eh


Note: Rotational entropy computed according to Herzberg 
Infrared and Raman Spectra, Chapter V,1, Van Nostrand Reinhold, 1945 
Point Group:  C3v, Symmetry Number:   3  
Rotational constants in cm-1:     8.222443     8.222136     5.876653 

Vibrational entropy computed according to the QRRHO of S. Grimme
Chem.Eur.J. 2012 18 9955


-------
ENTROPY
-------

The entropy contributions are T*S = T*(S(el)+S(vib)+S(rot)+S(trans))
     S(el)   - electronic entropy
     S(vib)  - vibrational entropy
     S(rot)  - rotational entropy
     S(trans)- translational entropy
The entropies will be listed as multiplied by the temperature to get
units of energy

Electronic entropy                ...      0.00065446 Eh      0.41 kcal/mol
Vibrational entropy               ...      0.00002968 Eh      0.02 kcal/mol
Rotational entropy                ...      0.00564821 Eh      3.54 kcal/mol
Translational entropy             ...      0.01618771 Eh     10.16 kcal/mol
-----------------------------------------------------------------------
Final entropy term                ...      0.02252005 Eh     14.13 kcal/mol

In case the symmetry of your molecule has not been determined correctly
or in case you have a reason to use a different symmetry number we print 
out the resulting rotational entropy values for sn=1,12 :
 --------------------------------------------------------
|  sn= 1 | S(rot)=       0.00668550 Eh      4.20 kcal/mol|
|  sn= 2 | S(rot)=       0.00603104 Eh      3.78 kcal/mol|
|  sn= 3 | S(rot)=       0.00564821 Eh      3.54 kcal/mol|
|  sn= 4 | S(rot)=       0.00537658 Eh      3.37 kcal/mol|
|  sn= 5 | S(rot)=       0.00516590 Eh      3.24 kcal/mol|
|  sn= 6 | S(rot)=       0.00499375 Eh      3.13 kcal/mol|
|  sn= 7 | S(rot)=       0.00484821 Eh      3.04 kcal/mol|
|  sn= 8 | S(rot)=       0.00472213 Eh      2.96 kcal/mol|
|  sn= 9 | S(rot)=       0.00461092 Eh      2.89 kcal/mol|
|  sn=10 | S(rot)=       0.00451144 Eh      2.83 kcal/mol|
|  sn=11 | S(rot)=       0.00442145 Eh      2.77 kcal/mol|
|  sn=12 | S(rot)=       0.00433930 Eh      2.72 kcal/mol|
 --------------------------------------------------------


-------------------
GIBBS FREE ENERGY
-------------------

The Gibbs free energy is G = H - T*S

Total enthalpy                    ...    -39.77575072 Eh 
Total entropy correction          ...     -0.02252005 Eh    -14.13 kcal/mol
-----------------------------------------------------------------------
Final Gibbs free energy         ...    -39.79827077 Eh

For completeness - the Gibbs free energy minus the electronic energy
G-E(el)                           ...      0.01167410 Eh      7.33 kcal/mol


Timings for individual modules:

Sum of individual times         ...       63.737 sec (=   1.062 min)
GTO integral calculation        ...       11.145 sec (=   0.186 min)  17.5 %
SCF iterations                  ...       33.978 sec (=   0.566 min)  53.3 %
SCF Gradient evaluation         ...        9.919 sec (=   0.165 min)  15.6 %
Geometry relaxation             ...        0.177 sec (=   0.003 min)   0.3 %
Analytical frequency calculation...        8.519 sec (=   0.142 min)  13.4 %
                             ****ORCA TERMINATED NORMALLY****
TOTAL RUN TIME: 0 days 0 hours 1 minutes 15 seconds 465 msec

slurmID:    32260092
totalRuntime[s]:    75.518907395
