
                                 *****************
                                 * O   R   C   A *
                                 *****************

                                            #,                                       
                                            ###                                      
                                            ####                                     
                                            #####                                    
                                            ######                                   
                                           ########,                                 
                                     ,,################,,,,,                         
                               ,,#################################,,                 
                          ,,##########################################,,             
                       ,#########################################, ''#####,          
                    ,#############################################,,   '####,        
                  ,##################################################,,,,####,       
                ,###########''''           ''''###############################       
              ,#####''   ,,,,##########,,,,          '''####'''          '####       
            ,##' ,,,,###########################,,,                        '##       
           ' ,,###''''                  '''############,,,                           
         ,,##''                                '''############,,,,        ,,,,,,###''
      ,#''                                            '''#######################'''  
     '                                                          ''''####''''         
             ,#######,   #######,   ,#######,      ##                                
            ,#'     '#,  ##    ##  ,#'     '#,    #''#        ######   ,####,        
            ##       ##  ##   ,#'  ##            #'  '#       #        #'  '#        
            ##       ##  #######   ##           ,######,      #####,   #    #        
            '#,     ,#'  ##    ##  '#,     ,#' ,#      #,         ##   #,  ,#        
             '#######'   ##     ##  '#######'  #'      '#     #####' # '####'        



                  #######################################################
                  #                        -***-                        #
                  #          Department of theory and spectroscopy      #
                  #    Directorship and core code : Frank Neese         #
                  #        Max Planck Institute fuer Kohlenforschung    #
                  #                Kaiser Wilhelm Platz 1               #
                  #                 D-45470 Muelheim/Ruhr               #
                  #                      Germany                        #
                  #                                                     #
                  #                  All rights reserved                #
                  #                        -***-                        #
                  #######################################################


                         Program Version 5.0.4 -  RELEASE  -


 With contributions from (in alphabetic order):
   Daniel Aravena         : Magnetic Suceptibility
   Michael Atanasov       : Ab Initio Ligand Field Theory (pilot matlab implementation)
   Alexander A. Auer      : GIAO ZORA, VPT2 properties, NMR spectrum
   Ute Becker             : Parallelization
   Giovanni Bistoni       : ED, misc. LED, open-shell LED, HFLD
   Martin Brehm           : Molecular dynamics
   Dmytro Bykov           : SCF Hessian
   Vijay G. Chilkuri      : MRCI spin determinant printing, contributions to CSF-ICE
   Dipayan Datta          : RHF DLPNO-CCSD density
   Achintya Kumar Dutta   : EOM-CC, STEOM-CC
   Dmitry Ganyushin       : Spin-Orbit,Spin-Spin,Magnetic field MRCI
   Miquel Garcia          : C-PCM and meta-GGA Hessian, CC/C-PCM, Gaussian charge scheme
   Yang Guo               : DLPNO-NEVPT2, F12-NEVPT2, CIM, IAO-localization
   Andreas Hansen         : Spin unrestricted coupled pair/coupled cluster methods
   Benjamin Helmich-Paris : MC-RPA, TRAH-SCF, COSX integrals
   Lee Huntington         : MR-EOM, pCC
   Robert Izsak           : Overlap fitted RIJCOSX, COSX-SCS-MP3, EOM
   Marcus Kettner         : VPT2
   Christian Kollmar      : KDIIS, OOCD, Brueckner-CCSD(T), CCSD density, CASPT2, CASPT2-K
   Simone Kossmann        : Meta GGA functionals, TD-DFT gradient, OOMP2, MP2 Hessian
   Martin Krupicka        : Initial AUTO-CI
   Lucas Lang             : DCDCAS
   Marvin Lechner         : AUTO-CI (C++ implementation), FIC-MRCC
   Dagmar Lenk            : GEPOL surface, SMD
   Dimitrios Liakos       : Extrapolation schemes; Compound Job, initial MDCI parallelization
   Dimitrios Manganas     : Further ROCIS development; embedding schemes
   Dimitrios Pantazis     : SARC Basis sets
   Anastasios Papadopoulos: AUTO-CI, single reference methods and gradients
   Taras Petrenko         : DFT Hessian,TD-DFT gradient, ASA, ECA, R-Raman, ABS, FL, XAS/XES, NRVS
   Peter Pinski           : DLPNO-MP2, DLPNO-MP2 Gradient
   Christoph Reimann      : Effective Core Potentials
   Marius Retegan         : Local ZFS, SOC
   Christoph Riplinger    : Optimizer, TS searches, QM/MM, DLPNO-CCSD(T), (RO)-DLPNO pert. Triples
   Tobias Risthaus        : Range-separated hybrids, TD-DFT gradient, RPA, STAB
   Michael Roemelt        : Original ROCIS implementation
   Masaaki Saitow         : Open-shell DLPNO-CCSD energy and density
   Barbara Sandhoefer     : DKH picture change effects
   Avijit Sen             : IP-ROCIS
   Kantharuban Sivalingam : CASSCF convergence, NEVPT2, FIC-MRCI
   Bernardo de Souza      : ESD, SOC TD-DFT
   Georgi Stoychev        : AutoAux, RI-MP2 NMR, DLPNO-MP2 response
   Willem Van den Heuvel  : Paramagnetic NMR
   Boris Wezisla          : Elementary symmetry handling
   Frank Wennmohs         : Technical directorship


 We gratefully acknowledge several colleagues who have allowed us to
 interface, adapt or use parts of their codes:
   Stefan Grimme, W. Hujo, H. Kruse, P. Pracht,  : VdW corrections, initial TS optimization,
                  C. Bannwarth, S. Ehlert          DFT functionals, gCP, sTDA/sTD-DF
   Ed Valeev, F. Pavosevic, A. Kumar             : LibInt (2-el integral package), F12 methods
   Garnet Chan, S. Sharma, J. Yang, R. Olivares  : DMRG
   Ulf Ekstrom                                   : XCFun DFT Library
   Mihaly Kallay                                 : mrcc  (arbitrary order and MRCC methods)
   Jiri Pittner, Ondrej Demel                    : Mk-CCSD
   Frank Weinhold                                : gennbo (NPA and NBO analysis)
   Christopher J. Cramer and Donald G. Truhlar   : smd solvation model
   Lars Goerigk                                  : TD-DFT with DH, B97 family of functionals
   V. Asgeirsson, H. Jonsson                     : NEB implementation
   FAccTs GmbH                                   : IRC, NEB, NEB-TS, DLPNO-Multilevel, CI-OPT
                                                   MM, QMMM, 2- and 3-layer-ONIOM, Crystal-QMMM,
                                                   LR-CPCM, SF, NACMEs, symmetry and pop. for TD-DFT,
                                                   nearIR, NL-DFT gradient (VV10), updates on ESD,
                                                   ML-optimized integration grids
   S Lehtola, MJT Oliveira, MAL Marques          : LibXC Library
   Liviu Ungur et al                             : ANISO software


 Your calculation uses the libint2 library for the computation of 2-el integrals
 For citations please refer to: http://libint.valeyev.net

 Your ORCA version has been built with support for libXC version: 5.1.0
 For citations please refer to: https://tddft.org/programs/libxc/

 This ORCA versions uses:
   CBLAS   interface :  Fast vector & matrix operations
   LAPACKE interface :  Fast linear algebra routines
   SCALAPACK package :  Parallel linear algebra routines
   Shared memory     :  Shared parallel matrices
   BLAS/LAPACK       :  OpenBLAS 0.3.15  USE64BITINT DYNAMIC_ARCH NO_AFFINITY SkylakeX SINGLE_THREADED
        Core in use  :  SkylakeX
   Copyright (c) 2011-2014, The OpenBLAS Project


Your calculation utilizes the atom-pairwise dispersion correction
with the zero-damping scheme (D30)
Cite in your paper:
S.Grimme, J.Antony, S.Ehrlich and H.Krieg, J.Chem.Phys., 132, (2010), 154104 
   

XCFun DFT library Copyright 2009-2010 Ulf Ekstrom and contributors.
See http://admol.org/xcfun for more information.
This is free software; see the source code for copying conditions.
There is ABSOLUTELY NO WARRANTY; not even for MERCHANTABILITY or FITNESS FOR A PARTICULAR PURPOSE.
For details see the documentation.
Scientific users of this library should cite U. Ekstrom, L. Visscher, R. Bast, A. J. Thorvaldsen and K. Ruud;
J.Chem.Theor.Comp. 2010, DOI: 10.1021/ct100117s
XCFun Version 0.99 

================================================================================

----- Orbital basis set information -----
Your calculation utilizes the basis: def2-TZVPD
   F. Weigend and R. Ahlrichs, Phys. Chem. Chem. Phys. 7, 3297 (2005).
   D. Rappoport and F. Furche, J. Chem. Phys. 133 134105 (2010).

----- AuxJ basis set information -----
Your calculation utilizes the auxiliary basis: def2/J
   F. Weigend, Phys. Chem. Chem. Phys. 8, 1057 (2006).

================================================================================
                                        WARNINGS
                       Please study these warnings very carefully!
================================================================================


WARNING: Geometry Optimization
  ===> : Switching off AutoStart
         For restart on a previous wavefunction, please use MOREAD

INFO   : the flag for use of the SHARK integral package has been found!

================================================================================
                                       INPUT FILE
================================================================================
NAME = /beegfs/scratch/ispackman/PFAS_EPR_calcs/benchmark/JChemEd_CF3_radical/CH3_radical_102.0_degrees_IN-PROGRESS/CH3_radical_102.0_degrees.inp
|  1> ! UKS TightSCF wB97x-D3 def2-TZVPD xyzfile opt freq
|  2> 
|  3> # CH3 radical 102.0 degrees fixed
|  4> 
|  5> %maxcore 1000
|  6> %pal
|  7> nprocs 18
|  8> end
|  9> 
| 10> %geom Constraints
| 11>         { A * 0 * C }
| 12>     end
| 13> end
| 14> * xyz 0 2
| 15> C 0.00 0.00 0.00
| 16> H 0.9691605289 0.0000000000 -0.4765793420
| 17> H -0.4845802645 0.8393176384 -0.4765793420
| 18> H -0.4845802645 -0.8393176384 -0.4765793420
| 19> **                         ****END OF INPUT****
================================================================================

                       *****************************
                       * Geometry Optimization Run *
                       *****************************

Geometry optimization settings:
Update method            Update   .... BFGS
Choice of coordinates    CoordSys .... Z-matrix Internals
Initial Hessian          InHess   .... Almoef's Model

Convergence Tolerances:
Energy Change            TolE     ....  5.0000e-06 Eh
Max. Gradient            TolMAXG  ....  3.0000e-04 Eh/bohr
RMS Gradient             TolRMSG  ....  1.0000e-04 Eh/bohr
Max. Displacement        TolMAXD  ....  4.0000e-03 bohr
RMS Displacement         TolRMSD  ....  2.0000e-03 bohr
Strict Convergence                ....  False
------------------------------------------------------------------------------
                        ORCA OPTIMIZATION COORDINATE SETUP
------------------------------------------------------------------------------

The optimization will be done in new redundant internal coordinates
Making redundant internal coordinates   ...  (new redundants) done
Evaluating the initial hessian          ...  (Almloef) done
Evaluating the coordinates              ...  done
Calculating the B-matrix                .... done
Calculating the G-matrix                .... done
Diagonalizing the G-matrix              .... done
Imposing constraints:
 Iter   0:  RMS(Cart)=    0.0000000000 RMS(Int)=    0.0000000000
CONVERGED
Will constrain atom 0 coordinate 1 
Will constrain atom 0 coordinate 2 
Will constrain atom 1 coordinate 2 
The first mode is                       ....    1
The number of degrees of freedom        ....    6
Storing new coordinates                 .... done

    -----------------------------------------------------------------
                    Redundant Internal Coordinates


    -----------------------------------------------------------------
         Definition                    Initial Value    Approx d2E/dq
    -----------------------------------------------------------------
      1. B(H   1,C   0)                  1.0800         0.373575   
      2. B(H   2,C   0)                  1.0800         0.373575   
      3. B(H   3,C   0)                  1.0800         0.373575   
      4. A(H   2,C   0,H   3)          102.0000         0.294224 C 
      5. A(H   1,C   0,H   2)          102.0000         0.294224 C 
      6. A(H   1,C   0,H   3)          102.0000         0.294224 C 
      7. I(H   1,H   3,H   2,C   0)     70.7085         0.002744   
    -----------------------------------------------------------------

Number of atoms                         .... 4
Number of degrees of freedom            .... 7

         *************************************************************
         *                GEOMETRY OPTIMIZATION CYCLE   1            *
         *************************************************************
---------------------------------
CARTESIAN COORDINATES (ANGSTROEM)
---------------------------------
  C      0.000000    0.000000    0.000000
  H      0.969161    0.000000   -0.476579
  H     -0.484580    0.839318   -0.476579
  H     -0.484580   -0.839318   -0.476579

----------------------------
CARTESIAN COORDINATES (A.U.)
----------------------------
  NO LB      ZA    FRAG     MASS         X           Y           Z
   0 C     6.0000    0    12.011    0.000000    0.000000    0.000000
   1 H     1.0000    0     1.008    1.831448    0.000000   -0.900604
   2 H     1.0000    0     1.008   -0.915724    1.586080   -0.900604
   3 H     1.0000    0     1.008   -0.915724   -1.586080   -0.900604

--------------------------------
INTERNAL COORDINATES (ANGSTROEM)
--------------------------------
 C      0   0   0     0.000000000000     0.00000000     0.00000000
 H      1   0   0     1.079999999999     0.00000000     0.00000000
 H      1   2   0     1.080000000043   102.00000000     0.00000000
 H      1   2   3     1.080000000043   102.00000000   105.21759380

---------------------------
INTERNAL COORDINATES (A.U.)
---------------------------
 C      0   0   0     0.000000000000     0.00000000     0.00000000
 H      1   0   0     2.040904224634     0.00000000     0.00000000
 H      1   2   0     2.040904224717   102.00000000     0.00000000
 H      1   2   3     2.040904224717   102.00000000   105.21759380

---------------------
BASIS SET INFORMATION
---------------------
There are 2 groups of distinct atoms

 Group   1 Type C   : 12s6p3d1f contracted to 6s3p3d1f pattern {621111/411/111/1}
 Group   2 Type H   : 5s2p contracted to 3s2p pattern {311/11}

Atom   0C    basis set group =>   1
Atom   1H    basis set group =>   2
Atom   2H    basis set group =>   2
Atom   3H    basis set group =>   2
---------------------------------
AUXILIARY/J BASIS SET INFORMATION
---------------------------------
There are 2 groups of distinct atoms

 Group   1 Type C   : 12s5p4d2f1g contracted to 6s4p3d1f1g pattern {711111/2111/211/2/1}
 Group   2 Type H   : 5s2p1d contracted to 3s1p1d pattern {311/2/1}

Atom   0C    basis set group =>   1
Atom   1H    basis set group =>   2
Atom   2H    basis set group =>   2
Atom   3H    basis set group =>   2


           ************************************************************
           *        Program running with 18 parallel MPI-processes    *
           *              working on a common directory               *
           ************************************************************
------------------------------------------------------------------------------
                           ORCA GTO INTEGRAL CALCULATION
                           -- RI-GTO INTEGRALS CHOSEN --
------------------------------------------------------------------------------
------------------------------------------------------------------------------
                   ___                                                        
                  /   \      - P O W E R E D   B Y -                         
                 /     \                                                     
                 |  |  |   _    _      __       _____    __    __             
                 |  |  |  | |  | |    /  \     |  _  \  |  |  /  |          
                  \  \/   | |  | |   /    \    | | | |  |  | /  /          
                 / \  \   | |__| |  /  /\  \   | |_| |  |  |/  /          
                |  |  |   |  __  | /  /__\  \  |    /   |      \           
                |  |  |   | |  | | |   __   |  |    \   |  |\   \          
                \     /   | |  | | |  |  |  |  | |\  \  |  | \   \       
                 \___/    |_|  |_| |__|  |__|  |_| \__\ |__|  \__/        
                                                                              
                      - O R C A' S   B I G   F R I E N D -                    
                                      &                                       
                       - I N T E G R A L  F E E D E R -                       
                                                                              
 v1 FN, 2020, v2 2021                                                         
------------------------------------------------------------------------------


Reading SHARK input file /beegfs/scratch/ispackman/PFAS_EPR_calcs/benchmark/JChemEd_CF3_radical/CH3_radical_102.0_degrees_IN-PROGRESS/CH3_radical_102.0_degrees.SHARKINP.tmp ... ok
----------------------
SHARK INTEGRAL PACKAGE
----------------------

Number of atoms                             ...      4
Number of basis functions                   ...     64
Number of shells                            ...     28
Maximum angular momentum                    ...      3
Integral batch strategy                     ... SHARK/LIBINT Hybrid
RI-J (if used) integral strategy            ... SPLIT-RIJ (Revised 2003 algorithm where possible)
Printlevel                                  ...      1
Contraction scheme used                     ... SEGMENTED contraction
Coulomb Range Separation                    ... NOT USED
Exchange Range Separation                   ... Long Range
   Mu parameter                             ...  0.250000
   Scaling (regular/separated)              ...  0.195728  0.804272
Finite Nucleus Model                        ... NOT USED
Auxiliary Coulomb fitting basis             ... AVAILABLE
   # of basis functions in Aux-J            ...     82
   # of shells in Aux-J                     ...     30
   Maximum angular momentum in Aux-J        ...      4
Auxiliary J/K fitting basis                 ... NOT available
Auxiliary Correlation fitting basis         ... NOT available
Auxiliary 'external' fitting basis          ... NOT available
Integral threshold                          ...     2.500000e-11
Primitive cut-off                           ...     2.500000e-12
Primitive pair pre-selection threshold      ...     2.500000e-12

Calculating pre-screening integrals         ... done (  0.0 sec) Dimension = 28
Organizing shell pair data                  ... done (  0.0 sec)
Shell pair information
Total number of shell pairs                 ...       406
Shell pairs after pre-screening             ...       406
Total number of primitive shell pairs       ...       977
Primitive shell pairs kept                  ...       947
          la=0 lb=0:    120 shell pairs
          la=1 lb=0:    135 shell pairs
          la=1 lb=1:     45 shell pairs
          la=2 lb=0:     45 shell pairs
          la=2 lb=1:     27 shell pairs
          la=2 lb=2:      6 shell pairs
          la=3 lb=0:     15 shell pairs
          la=3 lb=1:      9 shell pairs
          la=3 lb=2:      3 shell pairs
          la=3 lb=3:      1 shell pairs

Calculating one electron integrals          ... done (  0.0 sec)
Calculating RI/J V-Matrix + Cholesky decomp.... done (  0.2 sec)
Calculating Nuclear repulsion               ... done (  0.0 sec) ENN=      9.765347686447 Eh

SHARK setup successfully completed in   0.7 seconds

Maximum memory used throughout the entire GTOINT-calculation: 14.0 MB


           ************************************************************
           *        Program running with 18 parallel MPI-processes    *
           *              working on a common directory               *
           ************************************************************
-------------------------------------------------------------------------------
                                 ORCA SCF
-------------------------------------------------------------------------------

------------
SCF SETTINGS
------------
Hamiltonian:
 Density Functional     Method          .... DFT(GTOs)
 Exchange Functional    Exchange        .... WB97X-D3
 Correlation Functional Correlation     .... WB97X-D3
 Gradients option       PostSCFGGA      .... off
 Hybrid DFT is turned on
   Fraction HF Exchange ScalHFX         ....  0.195728
   Scaling of DF-GGA-X  ScalDFX         ....  0.000000
   Scaling of DF-GGA-C  ScalDFC         ....  1.000000
   Scaling of DF-LDA-C  ScalLDAC        ....  1.000000
   Perturbative correction              ....  0.000000
   Density functional embedding theory  .... OFF
 Long-range corrected/Screened/Range-Separated Hybrid DFT is turned on
   Amount of maximum screened exact exchange              ....  0.804272
   Range separation parameter mu (erf(mu*r12)/r12)        ....  0.250000
 RI-approximation to the Coulomb term is turned on
   Number of AuxJ basis functions       .... 82
   RIJ-COSX (HFX calculated with COS-X)).... on


General Settings:
 Integral files         IntName         .... /beegfs/scratch/ispackman/PFAS_EPR_calcs/benchmark/JChemEd_CF3_radical/CH3_radical_102.0_degrees_IN-PROGRESS/CH3_radical_102.0_degrees
 Hartree-Fock type      HFTyp           .... UHF
 Total Charge           Charge          ....    0
 Multiplicity           Mult            ....    2
 Number of Electrons    NEL             ....    9
 Basis Dimension        Dim             ....   64
 Nuclear Repulsion      ENuc            ....      9.7653476864 Eh

Convergence Acceleration:
 DIIS                   CNVDIIS         .... on
   Start iteration      DIISMaxIt       ....    12
   Startup error        DIISStart       ....  0.200000
   # of expansion vecs  DIISMaxEq       ....     5
   Bias factor          DIISBfac        ....   1.050
   Max. coefficient     DIISMaxC        ....  10.000
 Trust-Rad. Augm. Hess. CNVTRAH         .... auto
   Auto Start mean grad. ratio tolernc. ....  1.125000
   Auto Start start iteration           ....    20
   Auto Start num. interpolation iter.  ....    10
   Max. Number of Micro iterations      ....    16
   Max. Number of Macro iterations      .... Maxiter - #DIIS iter
   Number of Davidson start vectors     ....     2
   Converg. threshold I  (grad. norm)   ....   1.000e-05
   Converg. threshold II (energy diff.) ....   1.000e-08
   Grad. Scal. Fac. for Micro threshold ....   0.100
   Minimum threshold for Micro iter.    ....   0.010
   NR start threshold (gradient norm)   ....   0.001
   Initial trust radius                 ....   0.400
   Minimum AH scaling param. (alpha)    ....   1.000
   Maximum AH scaling param. (alpha)    .... 1000.000
   Orbital update algorithm             .... Taylor
   White noise on init. David. guess    .... on
   Maximum white noise                  ....   0.010
   Quad. conv. algorithm                .... NR
 SOSCF                  CNVSOSCF        .... off
 Level Shifting         CNVShift        .... on
   Level shift para.    LevelShift      ....    0.2500
   Turn off err/grad.   ShiftErr        ....    0.0010
 Zerner damping         CNVZerner       .... off
 Static damping         CNVDamp         .... on
   Fraction old density DampFac         ....    0.7000
   Max. Damping (<1)    DampMax         ....    0.9800
   Min. Damping (>=0)   DampMin         ....    0.0000
   Turn off err/grad.   DampErr         ....    0.1000
 Fernandez-Rico         CNVRico         .... off

SCF Procedure:
 Maximum # iterations   MaxIter         ....   125
 SCF integral mode      SCFMode         .... Direct
   Integral package                     .... SHARK and LIBINT hybrid scheme
 Reset frequency        DirectResetFreq ....    20
 Integral Threshold     Thresh          ....  2.500e-11 Eh
 Primitive CutOff       TCut            ....  2.500e-12 Eh

Convergence Tolerance:
 Convergence Check Mode ConvCheckMode   .... Total+1el-Energy
 Convergence forced     ConvForced      .... 0
 Energy Change          TolE            ....  1.000e-08 Eh
 1-El. energy change                    ....  1.000e-05 Eh
 DIIS Error             TolErr          ....  5.000e-07


Diagonalization of the overlap matrix:
Smallest eigenvalue                        ... 4.192e-05
Time for diagonalization                   ...    0.001 sec
Threshold for overlap eigenvalues          ... 1.000e-08
Number of eigenvalues below threshold      ... 0
Time for construction of square roots      ...    0.076 sec
Total time needed                          ...    0.079 sec

Time for model grid setup =    0.090 sec

------------------------------
INITIAL GUESS: MODEL POTENTIAL
------------------------------
Loading Hartree-Fock densities                     ... done
Calculating cut-offs                               ... done
Initializing the effective Hamiltonian             ... done
Setting up the integral package (SHARK)            ... done
Starting the Coulomb interaction                   ... done (   0.1 sec)
Reading the grid                                   ... done
Mapping shells                                     ... done
Starting the XC term evaluation                    ... done (   0.0 sec)
  promolecular density results
     # of electrons  =      8.997907741
     EX              =     -5.936194348
     EC              =     -0.260166831
     EX+EC           =     -6.196361180
Transforming the Hamiltonian                       ... done (   0.0 sec)
Diagonalizing the Hamiltonian                      ... done (   0.0 sec)
Back transforming the eigenvectors                 ... done (   0.0 sec)
Now organizing SCF variables                       ... done
                      ------------------
                      INITIAL GUESS DONE (   0.3 sec)
                      ------------------
-------------------
DFT GRID GENERATION
-------------------

General Integration Accuracy     IntAcc      ... 4.388
Radial Grid Type                 RadialGrid  ... OptM3 with GC (2021)
Angular Grid (max. ang.)         AngularGrid ... 4 (Lebedev-302)
Angular grid pruning method      GridPruning ... 4 (adaptive)
Weight generation scheme         WeightScheme... Becke
Basis function cutoff            BFCut       ... 1.0000e-11
Integration weight cutoff        WCut        ... 1.0000e-14
Angular grids for H and He will be reduced by one unit
Partially contracted basis set               ... off
Rotationally invariant grid construction     ... off

Total number of grid points                  ...    17037
Total number of batches                      ...      268
Average number of points per batch           ...       63
Average number of grid points per atom       ...     4259
Time for grid setup =    0.147 sec

--------------------
COSX GRID GENERATION
--------------------

GRIDX 1
-------
General Integration Accuracy     IntAcc      ... 3.816
Radial Grid Type                 RadialGrid  ... OptM3 with GC (2021)
Angular Grid (max. ang.)         AngularGrid ... 1 (Lebedev-50)
Angular grid pruning method      GridPruning ... 4 (adaptive)
Weight generation scheme         WeightScheme... Becke
Basis function cutoff            BFCut       ... 1.0000e-11
Integration weight cutoff        WCut        ... 1.0000e-14
Angular grids for H and He will be reduced by one unit
Partially contracted basis set               ... on
Rotationally invariant grid construction     ... off

Total number of grid points                  ...     2150
Total number of batches                      ...       36
Average number of points per batch           ...       59
Average number of grid points per atom       ...      538
UseSFitting                                  ... on

GRIDX 2
-------
General Integration Accuracy     IntAcc      ... 4.020
Radial Grid Type                 RadialGrid  ... OptM3 with GC (2021)
Angular Grid (max. ang.)         AngularGrid ... 2 (Lebedev-110)
Angular grid pruning method      GridPruning ... 4 (adaptive)
Weight generation scheme         WeightScheme... Becke
Basis function cutoff            BFCut       ... 1.0000e-11
Integration weight cutoff        WCut        ... 1.0000e-14
Angular grids for H and He will be reduced by one unit
Partially contracted basis set               ... on
Rotationally invariant grid construction     ... off

Total number of grid points                  ...     5036
Total number of batches                      ...       81
Average number of points per batch           ...       62
Average number of grid points per atom       ...     1259
UseSFitting                                  ... on

GRIDX 3
-------
General Integration Accuracy     IntAcc      ... 4.338
Radial Grid Type                 RadialGrid  ... OptM3 with GC (2021)
Angular Grid (max. ang.)         AngularGrid ... 3 (Lebedev-194)
Angular grid pruning method      GridPruning ... 4 (adaptive)
Weight generation scheme         WeightScheme... Becke
Basis function cutoff            BFCut       ... 1.0000e-11
Integration weight cutoff        WCut        ... 1.0000e-14
Angular grids for H and He will be reduced by one unit
Partially contracted basis set               ... on
Rotationally invariant grid construction     ... off

Total number of grid points                  ...    11707
Total number of batches                      ...      184
Average number of points per batch           ...       63
Average number of grid points per atom       ...     2927
UseSFitting                                  ... on

Time for X-Grid setup             =    0.568 sec

--------------
SCF ITERATIONS
--------------
ITER       Energy         Delta-E        Max-DP      RMS-DP      [F,P]     Damp
               ***  Starting incremental Fock matrix formation  ***
  0    -39.7765550851   0.000000000000 0.06191780  0.00119986  0.0761728 0.7000
  1    -39.7902409209  -0.013685835793 0.05761569  0.00105881  0.0489084 0.7000
                               ***Turning on DIIS***
  2    -39.7979994740  -0.007758553159 0.12462827  0.00232540  0.0282754 0.0000
  3    -39.8114898907  -0.013490416650 0.03803601  0.00071441  0.0192348 0.0000
  4    -39.8130176509  -0.001527760263 0.01313630  0.00022541  0.0033321 0.0000
  5    -39.8130839988  -0.000066347882 0.01160479  0.00019115  0.0016315 0.0000
  6    -39.8131059020  -0.000021903165 0.01224167  0.00019496  0.0006250 0.0000
               *** Restarting incremental Fock matrix formation ***
                                   *** Resetting DIIS ***
  7    -39.8131159654  -0.000010063435 0.00123682  0.00001961  0.0000825 0.0000
  8    -39.8131161089  -0.000000143438 0.00072462  0.00001155  0.0000360 0.0000
  9    -39.8131161519  -0.000000043028 0.00002273  0.00000079  0.0000151 0.0000
 10    -39.8131161542  -0.000000002261 0.00000802  0.00000027  0.0000060 0.0000
                 **** Energy Check signals convergence ****

               *****************************************************
               *                     SUCCESS                       *
               *           SCF CONVERGED AFTER  11 CYCLES          *
               *****************************************************

Old exchange energy                            =     -2.173602370 Eh
New exchange energy                            =     -2.173605394 Eh
Exchange energy change after final integration =     -0.000003025 Eh
Total energy after final integration           =    -39.813119179 Eh
Final COS-X integration done in                =     0.121 sec

----------------
TOTAL SCF ENERGY
----------------

Total Energy       :          -39.81311918 Eh           -1083.37005 eV

Components:
Nuclear Repulsion  :            9.76534769 Eh             265.72862 eV
Electronic Energy  :          -49.57846687 Eh           -1349.09867 eV
One Electron Energy:          -71.78024080 Eh           -1953.23965 eV
Two Electron Energy:           22.20177394 Eh             604.14098 eV
Max COSX asymmetry :            0.00000019 Eh               0.00001 eV

Virial components:
Potential Energy   :          -79.47771717 Eh           -2162.69863 eV
Kinetic Energy     :           39.66459799 Eh            1079.32858 eV
Virial Ratio       :            2.00374443


DFT components:
N(Alpha)           :        4.999997229127 electrons
N(Beta)            :        4.000000323427 electrons
N(Total)           :        8.999997552554 electrons
E(XC)              :       -4.316659098445 Eh       
DFET-embed. en.    :        0.000000000000 Eh       

---------------
SCF CONVERGENCE
---------------

  Last Energy change         ...    1.2740e-11  Tolerance :   1.0000e-08
  Last MAX-Density change    ...    0.0000e+00  Tolerance :   1.0000e-07
  Last RMS-Density change    ...    0.0000e+00  Tolerance :   5.0000e-09
  Last DIIS Error            ...    1.2637e-06  Tolerance :   5.0000e-07

             **** THE GBW FILE WAS UPDATED (/beegfs/scratch/ispackman/PFAS_EPR_calcs/benchmark/JChemEd_CF3_radical/CH3_radical_102.0_degrees_IN-PROGRESS/CH3_radical_102.0_degrees.gbw) ****
             **** DENSITY /beegfs/scratch/ispackman/PFAS_EPR_calcs/benchmark/JChemEd_CF3_radical/CH3_radical_102.0_degrees_IN-PROGRESS/CH3_radical_102.0_degrees.scfp WAS UPDATED ****
             **** ENERGY FILE WAS UPDATED (/beegfs/scratch/ispackman/PFAS_EPR_calcs/benchmark/JChemEd_CF3_radical/CH3_radical_102.0_degrees_IN-PROGRESS/CH3_radical_102.0_degrees.en.tmp) ****
----------------------
UHF SPIN CONTAMINATION
----------------------

Warning: in a DFT calculation there is little theoretical justification to 
         calculate <S**2> as in Hartree-Fock theory. We will do it anyways
         but you should keep in mind that the values have only limited relevance

Expectation value of <S**2>     :     0.752978
Ideal value S*(S+1) for S=0.5   :     0.750000
Deviation                       :     0.002978

             **** THE GBW FILE WAS UPDATED (/beegfs/scratch/ispackman/PFAS_EPR_calcs/benchmark/JChemEd_CF3_radical/CH3_radical_102.0_degrees_IN-PROGRESS/CH3_radical_102.0_degrees.gbw) ****
             **** DENSITY /beegfs/scratch/ispackman/PFAS_EPR_calcs/benchmark/JChemEd_CF3_radical/CH3_radical_102.0_degrees_IN-PROGRESS/CH3_radical_102.0_degrees.scfp WAS UPDATED ****
----------------
ORBITAL ENERGIES
----------------
                 SPIN UP ORBITALS
  NO   OCC          E(Eh)            E(eV) 
   0   1.0000     -10.293898      -280.1112 
   1   1.0000      -0.818123       -22.2623 
   2   1.0000      -0.497581       -13.5399 
   3   1.0000      -0.497545       -13.5389 
   4   1.0000      -0.380937       -10.3658 
   5   0.0000       0.075444         2.0529 
   6   0.0000       0.161591         4.3971 
   7   0.0000       0.161599         4.3973 
   8   0.0000       0.179960         4.8970 
   9   0.0000       0.194452         5.2913 
  10   0.0000       0.194456         5.2914 
  11   0.0000       0.231880         6.3098 
  12   0.0000       0.253301         6.8927 
  13   0.0000       0.253304         6.8927 
  14   0.0000       0.315594         8.5877 
  15   0.0000       0.353273         9.6130 
  16   0.0000       0.353283         9.6133 
  17   0.0000       0.359126         9.7723 
  18   0.0000       0.378417        10.2972 
  19   0.0000       0.383880        10.4459 
  20   0.0000       0.383885        10.4460 
  21   0.0000       0.400150        10.8886 
  22   0.0000       0.400158        10.8888 
  23   0.0000       0.533521        14.5179 
  24   0.0000       0.559586        15.2271 
  25   0.0000       0.559594        15.2273 
  26   0.0000       0.615750        16.7554 
  27   0.0000       0.783611        21.3231 
  28   0.0000       0.791213        21.5300 
  29   0.0000       0.791218        21.5301 
  30   0.0000       0.870034        23.6748 
  31   0.0000       0.870044        23.6751 
  32   0.0000       0.978943        26.6384 
  33   0.0000       1.159080        31.5402 
  34   0.0000       1.159101        31.5407 
  35   0.0000       1.646061        44.7916 
  36   0.0000       1.741549        47.3900 
  37   0.0000       1.741642        47.3925 
  38   0.0000       1.755743        47.7762 
  39   0.0000       1.799949        48.9791 
  40   0.0000       1.936699        52.7003 
  41   0.0000       1.936737        52.7013 
  42   0.0000       2.201588        59.9083 
  43   0.0000       2.240704        60.9727 
  44   0.0000       2.240794        60.9751 
  45   0.0000       2.375093        64.6296 
  46   0.0000       2.633754        71.6681 
  47   0.0000       2.633764        71.6684 
  48   0.0000       2.722786        74.0908 
  49   0.0000       2.722897        74.0938 
  50   0.0000       2.831681        77.0539 
  51   0.0000       3.047499        82.9267 
  52   0.0000       3.156445        85.8912 
  53   0.0000       3.156517        85.8932 
  54   0.0000       3.298741        89.7633 
  55   0.0000       3.298778        89.7643 
  56   0.0000       3.331164        90.6456 
  57   0.0000       3.399721        92.5111 
  58   0.0000       3.710407       100.9653 
  59   0.0000       3.710464       100.9669 
  60   0.0000       4.407197       119.9259 
  61   0.0000       4.454811       121.2216 
  62   0.0000       4.455093       121.2292 
  63   0.0000      22.181777       603.5968 

                 SPIN DOWN ORBITALS
  NO   OCC          E(Eh)            E(eV) 
   0   1.0000     -10.282466      -279.8001 
   1   1.0000      -0.781712       -21.2715 
   2   1.0000      -0.482347       -13.1253 
   3   1.0000      -0.482338       -13.1251 
   4   0.0000      -0.029181        -0.7941 
   5   0.0000       0.084025         2.2864 
   6   0.0000       0.166557         4.5322 
   7   0.0000       0.166563         4.5324 
   8   0.0000       0.200645         5.4598 
   9   0.0000       0.200655         5.4601 
  10   0.0000       0.216205         5.8832 
  11   0.0000       0.247478         6.7342 
  12   0.0000       0.257535         7.0079 
  13   0.0000       0.257536         7.0079 
  14   0.0000       0.325661         8.8617 
  15   0.0000       0.368110        10.0168 
  16   0.0000       0.368116        10.0170 
  17   0.0000       0.371287        10.1032 
  18   0.0000       0.378298        10.2940 
  19   0.0000       0.391267        10.6469 
  20   0.0000       0.391269        10.6470 
  21   0.0000       0.409159        11.1338 
  22   0.0000       0.409162        11.1339 
  23   0.0000       0.563394        15.3307 
  24   0.0000       0.563405        15.3310 
  25   0.0000       0.569434        15.4951 
  26   0.0000       0.624940        17.0055 
  27   0.0000       0.791631        21.5414 
  28   0.0000       0.803223        21.8568 
  29   0.0000       0.803225        21.8569 
  30   0.0000       0.891441        24.2573 
  31   0.0000       0.891456        24.2578 
  32   0.0000       0.997727        27.1495 
  33   0.0000       1.169266        31.8174 
  34   0.0000       1.169292        31.8181 
  35   0.0000       1.714857        46.6636 
  36   0.0000       1.750694        47.6388 
  37   0.0000       1.750813        47.6420 
  38   0.0000       1.756980        47.8099 
  39   0.0000       1.814435        49.3733 
  40   0.0000       1.952664        53.1347 
  41   0.0000       1.952728        53.1364 
  42   0.0000       2.205348        60.0106 
  43   0.0000       2.251879        61.2767 
  44   0.0000       2.251949        61.2786 
  45   0.0000       2.390032        65.0361 
  46   0.0000       2.638812        71.8057 
  47   0.0000       2.638821        71.8060 
  48   0.0000       2.747632        74.7669 
  49   0.0000       2.747683        74.7683 
  50   0.0000       2.854954        77.6872 
  51   0.0000       3.093907        84.1895 
  52   0.0000       3.204281        87.1929 
  53   0.0000       3.204336        87.1944 
  54   0.0000       3.335143        90.7538 
  55   0.0000       3.335227        90.7562 
  56   0.0000       3.351848        91.2084 
  57   0.0000       3.430887        93.3592 
  58   0.0000       3.754807       102.1735 
  59   0.0000       3.754830       102.1741 
  60   0.0000       4.431894       120.5980 
  61   0.0000       4.477050       121.8267 
  62   0.0000       4.477346       121.8348 
  63   0.0000      22.201838       604.1427 

                    ********************************
                    * MULLIKEN POPULATION ANALYSIS *
                    ********************************

--------------------------------------------
MULLIKEN ATOMIC CHARGES AND SPIN POPULATIONS
--------------------------------------------
   0 C :   -0.693120    0.883335
   1 H :    0.230723    0.038852
   2 H :    0.231199    0.038907
   3 H :    0.231198    0.038907
Sum of atomic charges         :    0.0000000
Sum of atomic spin populations:    1.0000000

-----------------------------------------------------
MULLIKEN REDUCED ORBITAL CHARGES AND SPIN POPULATIONS
-----------------------------------------------------
CHARGE
  0 C s       :     3.329779  s :     3.329779
      pz      :     0.950356  p :     3.312600
      px      :     1.181074
      py      :     1.181170
      dz2     :     0.000348  d :     0.050056
      dxz     :     0.016653
      dyz     :     0.016672
      dx2y2   :     0.008182
      dxy     :     0.008201
      f0      :     0.000384  f :     0.000685
      f+1     :     0.000016
      f-1     :     0.000016
      f+2     :    -0.000081
      f-2     :    -0.000076
      f+3     :     0.000427
      f-3     :     0.000000
  1 H s       :     0.725049  s :     0.725049
      pz      :     0.022523  p :     0.044227
      px      :     0.017592
      py      :     0.004112
  2 H s       :     0.724697  s :     0.724697
      pz      :     0.022441  p :     0.044104
      px      :     0.007475
      py      :     0.014188
  3 H s       :     0.724698  s :     0.724698
      pz      :     0.022441  p :     0.044104
      px      :     0.007475
      py      :     0.014188

SPIN
  0 C s       :     0.021200  s :     0.021200
      pz      :     0.864467  p :     0.872788
      px      :     0.004152
      py      :     0.004170
      dz2     :    -0.001048  d :    -0.009991
      dxz     :    -0.004147
      dyz     :    -0.004143
      dx2y2   :    -0.000332
      dxy     :    -0.000321
      f0      :    -0.000455  f :    -0.000663
      f+1     :    -0.000024
      f-1     :    -0.000024
      f+2     :    -0.000019
      f-2     :    -0.000017
      f+3     :    -0.000125
      f-3     :    -0.000000
  1 H s       :     0.016368  s :     0.016368
      pz      :     0.019577  p :     0.022484
      px      :    -0.000012
      py      :     0.002919
  2 H s       :     0.016488  s :     0.016488
      pz      :     0.019515  p :     0.022418
      px      :     0.002182
      py      :     0.000721
  3 H s       :     0.016489  s :     0.016489
      pz      :     0.019515  p :     0.022418
      px      :     0.002182
      py      :     0.000721


                     *******************************
                     * LOEWDIN POPULATION ANALYSIS *
                     *******************************

-------------------------------------------
LOEWDIN ATOMIC CHARGES AND SPIN POPULATIONS
-------------------------------------------
   0 C :    0.056135    0.835237
   1 H :   -0.018742    0.054919
   2 H :   -0.018696    0.054922
   3 H :   -0.018696    0.054922

----------------------------------------------------
LOEWDIN REDUCED ORBITAL CHARGES AND SPIN POPULATIONS
----------------------------------------------------
CHARGE
  0 C s       :     2.908059  s :     2.908059
      pz      :     0.768842  p :     2.904227
      px      :     1.067689
      py      :     1.067695
      dz2     :     0.004610  d :     0.120512
      dxz     :     0.027366
      dyz     :     0.027370
      dx2y2   :     0.030583
      dxy     :     0.030584
      f0      :     0.001450  f :     0.011068
      f+1     :     0.000020
      f-1     :     0.000020
      f+2     :     0.003539
      f-2     :     0.003542
      f+3     :     0.002497
      f-3     :     0.000000
  1 H s       :     0.752132  s :     0.752132
      pz      :     0.070244  p :     0.266610
      px      :     0.121472
      py      :     0.074894
  2 H s       :     0.752104  s :     0.752104
      pz      :     0.070225  p :     0.266592
      px      :     0.086530
      py      :     0.109836
  3 H s       :     0.752104  s :     0.752104
      pz      :     0.070225  p :     0.266592
      px      :     0.086530
      py      :     0.109836

SPIN
  0 C s       :     0.105443  s :     0.105443
      pz      :     0.700693  p :     0.739529
      px      :     0.019433
      py      :     0.019403
      dz2     :     0.000896  d :    -0.009489
      dxz     :    -0.003565
      dyz     :    -0.003568
      dx2y2   :    -0.001633
      dxy     :    -0.001619
      f0      :    -0.000207  f :    -0.000246
      f+1     :     0.000015
      f-1     :     0.000015
      f+2     :    -0.000188
      f-2     :    -0.000186
      f+3     :     0.000305
      f-3     :    -0.000000
  1 H s       :    -0.001871  s :    -0.001871
      pz      :     0.054651  p :     0.056790
      px      :     0.003017
      py      :    -0.000878
  2 H s       :    -0.001880  s :    -0.001880
      pz      :     0.054656  p :     0.056802
      px      :     0.000093
      py      :     0.002052
  3 H s       :    -0.001880  s :    -0.001880
      pz      :     0.054656  p :     0.056802
      px      :     0.000093
      py      :     0.002052


                      *****************************
                      * MAYER POPULATION ANALYSIS *
                      *****************************

  NA   - Mulliken gross atomic population
  ZA   - Total nuclear charge
  QA   - Mulliken gross atomic charge
  VA   - Mayer's total valence
  BVA  - Mayer's bonded valence
  FA   - Mayer's free valence

  ATOM       NA         ZA         QA         VA         BVA        FA
  0 C      6.6931     6.0000    -0.6931     3.8178     3.0326     0.7852
  1 H      0.7693     1.0000     0.2307     1.0112     1.0098     0.0014
  2 H      0.7688     1.0000     0.2312     1.0106     1.0093     0.0014
  3 H      0.7688     1.0000     0.2312     1.0106     1.0093     0.0014

  Mayer bond orders larger than 0.100000
B(  0-C ,  1-H ) :   1.0111 B(  0-C ,  2-H ) :   1.0107 B(  0-C ,  3-H ) :   1.0107 


-------
TIMINGS
-------

Total SCF time: 0 days 0 hours 0 min 17 sec 

Total time                  ....      17.917 sec
Sum of individual times     ....      15.938 sec  ( 89.0%)

Fock matrix formation       ....      13.171 sec  ( 73.5%)
  Split-RI-J                ....       0.957 sec  (  7.3% of F)
  Chain of spheres X        ....       1.425 sec  ( 10.8% of F)
  XC integration            ....       2.187 sec  ( 16.6% of F)
    Basis function eval.    ....       0.051 sec  (  2.4% of XC)
    Density eval.           ....       0.071 sec  (  3.3% of XC)
    XC-Functional eval.     ....       0.067 sec  (  3.1% of XC)
    XC-Potential eval.      ....       0.074 sec  (  3.4% of XC)
Diagonalization             ....       0.233 sec  (  1.3%)
Density matrix formation    ....       0.010 sec  (  0.1%)
Population analysis         ....       0.309 sec  (  1.7%)
Initial guess               ....       0.169 sec  (  0.9%)
Orbital Transformation      ....       0.000 sec  (  0.0%)
Orbital Orthonormalization  ....       0.000 sec  (  0.0%)
DIIS solution               ....       1.240 sec  (  6.9%)
Grid generation             ....       0.806 sec  (  4.5%)

Maximum memory used throughout the entire SCF-calculation: 58.5 MB


-------------------------------------------------------------------------------
                          DFT DISPERSION CORRECTION                            
                                                                               
                              DFTD3 V3.1  Rev 1                                
                              USING zero damping                               
-------------------------------------------------------------------------------
The omegaB97X-D3 functional is recognized. Fit by Chai et al.
Active option DFTDOPT                   ...         3   

molecular C6(AA) [au] = 106.958795 


            DFT-D V3
 parameters
 s6 scaling factor         :     1.0000 
 rs6 scaling factor        :     1.2810 
 s8 scaling factor         :     1.0000 
 rs8 scaling factor        :     1.0940 
 Damping factor alpha6     :    14.0000 
 Damping factor alpha8     :    16.0000 
 ad hoc parameters k1-k3   :    16.0000     1.3333    -4.0000 

 Edisp/kcal,au: -0.004931079886  -0.000007858175 
 E6   /kcal   :  -0.000767202 
 E8   /kcal   :  -0.004163878 
 % E8         :  84.441494299 

-------------------------   ----------------
Dispersion correction           -0.000007858
-------------------------   ----------------


-------------------------   --------------------
FINAL SINGLE POINT ENERGY       -39.813127036817
-------------------------   --------------------



           ************************************************************
           *        Program running with 18 parallel MPI-processes    *
           *              working on a common directory               *
           ************************************************************
------------------------------------------------------------------------------
                         ORCA SCF GRADIENT CALCULATION
------------------------------------------------------------------------------

 ... reading COSX grid (gridx3)
Gradient of the Kohn-Sham DFT energy:
Kohn-Sham wavefunction type      ... UKS
Hartree-Fock exchange scaling    ...    0.196
Number of operators              ...    2
Number of atoms                  ...    4
Basis set dimensions             ...   64
Integral neglect threshold       ... 2.5e-11
Integral primitive cutoff        ... 2.5e-12
SHARK Integral package           ... ON

Nuc. rep. gradient       (SHARK) ... done (  0.0 sec)
HCore & Overlap gradient (SHARK) ... done (  0.0 sec)
RI-J gradient            (SHARK) ... done (  0.1 sec)
COSX-gradient                    ... done (  0.1 sec)
Exchange-correlation gradient    ... done
Dispersion correction            ... done

------------------
CARTESIAN GRADIENT
------------------

WARNING: THERE ARE 3 CONSTRAINED CARTESIAN COORDINATES
   1   C   :   -0.000045172   -0.000000028    0.059574071
   2   H   :   -0.021634071    0.000000009   -0.019900305
   3   H   :    0.010794604   -0.018730760   -0.019844210
   4   H   :    0.010794594    0.018730754   -0.019844217

Difference to translation invariance:
           :   -0.0000900456   -0.0000000266   -0.0000146603

Difference to rotation invariance:
           :    0.0000000124    0.0001431414    0.0000000058

Norm of the cartesian gradient     ...    0.0783290622
RMS gradient                       ...    0.0226116526
MAX gradient                       ...    0.0595740711

-------
TIMINGS
-------

Total SCF gradient time            ...        0.715 sec

One electron gradient       ....       0.007 sec  (  0.9%)
RI-J Coulomb gradient       ....       0.118 sec  ( 16.5%)
COSX gradient               ....       0.126 sec  ( 17.6%)
XC gradient                 ....       0.066 sec  (  9.2%)

Maximum memory used throughout the entire SCFGRAD-calculation: 33.6 MB
------------------------------------------------------------------------------
                         ORCA GEOMETRY RELAXATION STEP
------------------------------------------------------------------------------

Reading the OPT-File                    .... done
Getting information on internals        .... done
Copying old internal coords+grads       .... done
Making the new internal coordinates     .... (new redundants).... done
Validating the new internal coordinates .... (new redundants).... done
Calculating the B-matrix                .... done
Calculating the G,G- and P matrices     .... done
Transforming gradient to internals      .... done
Projecting the internal gradient        .... done
Number of atoms                         ....   4
Number of internal coordinates          ....   7
Current Energy                          ....   -39.813127037 Eh
Current gradient norm                   ....     0.078329062 Eh/bohr
Maximum allowed component of the step   ....  0.300
Current trust radius                    ....  0.300
Evaluating the initial hessian          ....  (Almloef) done
Projecting the Hessian                  .... done
Forming the augmented Hessian           .... done
Diagonalizing the augmented Hessian     .... done
Last element of RFO vector              ....  0.998791030
Lowest eigenvalues of augmented Hessian:
 -0.000907120  0.373574723  0.373574723  0.374481843 1000.000000000
Length of the computed step             ....  0.049217199
The final length of the internal step   ....  0.049217199
Converting the step to cartesian space:
 Initial RMS(Int)=    0.0186023527
Transforming coordinates:
 Iter   0:  RMS(Cart)=    0.0131293698 RMS(Int)=    0.0186023527
 Iter   1:  RMS(Cart)=    0.0000000001 RMS(Int)=    0.0000000001
Imposing constraints:
 Iter   0:  RMS(Cart)=    0.0000000009 RMS(Int)=    0.0000000016
CONVERGED
done
Storing new coordinates                 .... done

                                .--------------------.
          ----------------------|Geometry convergence|-------------------------
          Item                value                   Tolerance       Converged
          ---------------------------------------------------------------------
          RMS gradient        0.0069662433            0.0001000000      NO
          MAX gradient        0.0106504087            0.0003000000      NO
          RMS step            0.0186023527            0.0020000000      NO
          MAX step            0.0284403874            0.0040000000      NO
          ........................................................
          Max(Bonds)      0.0151      Max(Angles)    0.00
          Max(Dihed)        0.00      Max(Improp)    0.00
          ---------------------------------------------------------------------

The optimization has not yet converged - more geometry cycles are needed


    ---------------------------------------------------------------------------
                         Redundant Internal Coordinates
                            (Angstroem and degrees)

        Definition                    Value    dE/dq     Step     New-Value
    ----------------------------------------------------------------------------
     1. B(H   1,C   0)                1.0800 -0.010622  0.0150    1.0950   
     2. B(H   2,C   0)                1.0800 -0.010650  0.0151    1.0951   
     3. B(H   3,C   0)                1.0800 -0.010650  0.0151    1.0951   
     4. A(H   2,C   0,H   3)          102.00 -0.038267   -0.00    102.00 C 
     5. A(H   1,C   0,H   2)          102.00 -0.016629   -0.00    102.00 C 
     6. A(H   1,C   0,H   3)          102.00 -0.016629   -0.00    102.00 C 
     7. I(H   1,H   3,H   2,C   0)     70.71  0.035655   -0.00     70.71   
    ----------------------------------------------------------------------------

         *************************************************************
         *                GEOMETRY OPTIMIZATION CYCLE   2            *
         *************************************************************
---------------------------------
CARTESIAN COORDINATES (ANGSTROEM)
---------------------------------
  C      0.000012    0.000000    0.004977
  H      0.982638    0.000000   -0.478234
  H     -0.491325    0.851014   -0.478240
  H     -0.491325   -0.851014   -0.478240

----------------------------
CARTESIAN COORDINATES (A.U.)
----------------------------
  NO LB      ZA    FRAG     MASS         X           Y           Z
   0 C     6.0000    0    12.011    0.000022    0.000000    0.009404
   1 H     1.0000    0     1.008    1.856918    0.000000   -0.903732
   2 H     1.0000    0     1.008   -0.928470    1.608183   -0.903743
   3 H     1.0000    0     1.008   -0.928470   -1.608183   -0.903743

--------------------------------
INTERNAL COORDINATES (ANGSTROEM)
--------------------------------
 C      0   0   0     0.000000000000     0.00000000     0.00000000
 H      1   0   0     1.095010565360     0.00000000     0.00000000
 H      1   2   0     1.095050000408   102.00000006     0.00000000
 H      1   2   3     1.095050004864   102.00000006   105.21759398

---------------------------
INTERNAL COORDINATES (A.U.)
---------------------------
 C      0   0   0     0.000000000000     0.00000000     0.00000000
 H      1   0   0     2.069270082280     0.00000000     0.00000000
 H      1   2   0     2.069344603722   102.00000006     0.00000000
 H      1   2   3     2.069344612142   102.00000006   105.21759398



           ************************************************************
           *        Program running with 18 parallel MPI-processes    *
           *              working on a common directory               *
           ************************************************************
------------------------------------------------------------------------------
                   ___                                                        
                  /   \      - P O W E R E D   B Y -                         
                 /     \                                                     
                 |  |  |   _    _      __       _____    __    __             
                 |  |  |  | |  | |    /  \     |  _  \  |  |  /  |          
                  \  \/   | |  | |   /    \    | | | |  |  | /  /          
                 / \  \   | |__| |  /  /\  \   | |_| |  |  |/  /          
                |  |  |   |  __  | /  /__\  \  |    /   |      \           
                |  |  |   | |  | | |   __   |  |    \   |  |\   \          
                \     /   | |  | | |  |  |  |  | |\  \  |  | \   \       
                 \___/    |_|  |_| |__|  |__|  |_| \__\ |__|  \__/        
                                                                              
                      - O R C A' S   B I G   F R I E N D -                    
                                      &                                       
                       - I N T E G R A L  F E E D E R -                       
                                                                              
 v1 FN, 2020, v2 2021                                                         
------------------------------------------------------------------------------


Reading SHARK input file /beegfs/scratch/ispackman/PFAS_EPR_calcs/benchmark/JChemEd_CF3_radical/CH3_radical_102.0_degrees_IN-PROGRESS/CH3_radical_102.0_degrees.SHARKINP.tmp ... ok
----------------------
SHARK INTEGRAL PACKAGE
----------------------

Number of atoms                             ...      4
Number of basis functions                   ...     64
Number of shells                            ...     28
Maximum angular momentum                    ...      3
Integral batch strategy                     ... SHARK/LIBINT Hybrid
RI-J (if used) integral strategy            ... SPLIT-RIJ (Revised 2003 algorithm where possible)
Printlevel                                  ...      1
Contraction scheme used                     ... SEGMENTED contraction
Coulomb Range Separation                    ... NOT USED
Exchange Range Separation                   ... Long Range
   Mu parameter                             ...  0.250000
   Scaling (regular/separated)              ...  0.195728  0.804272
Finite Nucleus Model                        ... NOT USED
Auxiliary Coulomb fitting basis             ... AVAILABLE
   # of basis functions in Aux-J            ...     82
   # of shells in Aux-J                     ...     30
   Maximum angular momentum in Aux-J        ...      4
Auxiliary J/K fitting basis                 ... NOT available
Auxiliary Correlation fitting basis         ... NOT available
Auxiliary 'external' fitting basis          ... NOT available
Integral threshold                          ...     2.500000e-11
Primitive cut-off                           ...     2.500000e-12
Primitive pair pre-selection threshold      ...     2.500000e-12

Calculating pre-screening integrals         ... done (  0.0 sec) Dimension = 28
Organizing shell pair data                  ... done (  0.0 sec)
Shell pair information
Total number of shell pairs                 ...       406
Shell pairs after pre-screening             ...       406
Total number of primitive shell pairs       ...       977
Primitive shell pairs kept                  ...       947
          la=0 lb=0:    120 shell pairs
          la=1 lb=0:    135 shell pairs
          la=1 lb=1:     45 shell pairs
          la=2 lb=0:     45 shell pairs
          la=2 lb=1:     27 shell pairs
          la=2 lb=2:      6 shell pairs
          la=3 lb=0:     15 shell pairs
          la=3 lb=1:      9 shell pairs
          la=3 lb=2:      3 shell pairs
          la=3 lb=3:      1 shell pairs

Calculating one electron integrals          ... done (  0.0 sec)
Calculating RI/J V-Matrix + Cholesky decomp.... done (  0.2 sec)
Calculating Nuclear repulsion               ... done (  0.0 sec) ENN=      9.631251621829 Eh

SHARK setup successfully completed in   0.7 seconds

Maximum memory used throughout the entire GTOINT-calculation: 14.0 MB


           ************************************************************
           *        Program running with 18 parallel MPI-processes    *
           *              working on a common directory               *
           ************************************************************

Diagonalization of the overlap matrix:
Smallest eigenvalue                        ... 4.661e-05
Time for diagonalization                   ...    0.002 sec
Threshold for overlap eigenvalues          ... 1.000e-08
Number of eigenvalues below threshold      ... 0
Time for construction of square roots      ...    0.087 sec
Total time needed                          ...    0.091 sec

-------------------
DFT GRID GENERATION
-------------------

General Integration Accuracy     IntAcc      ... 4.388
Radial Grid Type                 RadialGrid  ... OptM3 with GC (2021)
Angular Grid (max. ang.)         AngularGrid ... 4 (Lebedev-302)
Angular grid pruning method      GridPruning ... 4 (adaptive)
Weight generation scheme         WeightScheme... Becke
Basis function cutoff            BFCut       ... 1.0000e-11
Integration weight cutoff        WCut        ... 1.0000e-14
Angular grids for H and He will be reduced by one unit
Partially contracted basis set               ... off
Rotationally invariant grid construction     ... off

Total number of grid points                  ...    17040
Total number of batches                      ...      269
Average number of points per batch           ...       63
Average number of grid points per atom       ...     4260
Time for grid setup =    0.157 sec

--------------------
COSX GRID GENERATION
--------------------

GRIDX 1
-------
General Integration Accuracy     IntAcc      ... 3.816
Radial Grid Type                 RadialGrid  ... OptM3 with GC (2021)
Angular Grid (max. ang.)         AngularGrid ... 1 (Lebedev-50)
Angular grid pruning method      GridPruning ... 4 (adaptive)
Weight generation scheme         WeightScheme... Becke
Basis function cutoff            BFCut       ... 1.0000e-11
Integration weight cutoff        WCut        ... 1.0000e-14
Angular grids for H and He will be reduced by one unit
Partially contracted basis set               ... on
Rotationally invariant grid construction     ... off

Total number of grid points                  ...     2150
Total number of batches                      ...       36
Average number of points per batch           ...       59
Average number of grid points per atom       ...      538
UseSFitting                                  ... on

GRIDX 2
-------
General Integration Accuracy     IntAcc      ... 4.020
Radial Grid Type                 RadialGrid  ... OptM3 with GC (2021)
Angular Grid (max. ang.)         AngularGrid ... 2 (Lebedev-110)
Angular grid pruning method      GridPruning ... 4 (adaptive)
Weight generation scheme         WeightScheme... Becke
Basis function cutoff            BFCut       ... 1.0000e-11
Integration weight cutoff        WCut        ... 1.0000e-14
Angular grids for H and He will be reduced by one unit
Partially contracted basis set               ... on
Rotationally invariant grid construction     ... off

Total number of grid points                  ...     5040
Total number of batches                      ...       81
Average number of points per batch           ...       62
Average number of grid points per atom       ...     1260
UseSFitting                                  ... on

GRIDX 3
-------
General Integration Accuracy     IntAcc      ... 4.338
Radial Grid Type                 RadialGrid  ... OptM3 with GC (2021)
Angular Grid (max. ang.)         AngularGrid ... 3 (Lebedev-194)
Angular grid pruning method      GridPruning ... 4 (adaptive)
Weight generation scheme         WeightScheme... Becke
Basis function cutoff            BFCut       ... 1.0000e-11
Integration weight cutoff        WCut        ... 1.0000e-14
Angular grids for H and He will be reduced by one unit
Partially contracted basis set               ... on
Rotationally invariant grid construction     ... off

Total number of grid points                  ...    11709
Total number of batches                      ...      184
Average number of points per batch           ...       63
Average number of grid points per atom       ...     2927
UseSFitting                                  ... on

Time for X-Grid setup             =    0.630 sec

--------------
SCF ITERATIONS
--------------
ITER       Energy         Delta-E        Max-DP      RMS-DP      [F,P]     Damp
               ***  Starting incremental Fock matrix formation  ***
  0    -39.8134475508   0.000000000000 0.01018641  0.00017278  0.0036947 0.7000
  1    -39.8134895083  -0.000041957538 0.00894560  0.00015147  0.0025118 0.7000
                               ***Turning on DIIS***
  2    -39.8135175772  -0.000028068833 0.02322349  0.00039268  0.0018316 0.0000
  3    -39.8135792256  -0.000061648449 0.00494038  0.00008567  0.0006536 0.0000
               *** Restarting incremental Fock matrix formation ***
                                   *** Resetting DIIS ***
  4    -39.8135821154  -0.000002889816 0.00047127  0.00001493  0.0003069 0.0000
  5    -39.8135825937  -0.000000478306 0.00040925  0.00000797  0.0001838 0.0000
  6    -39.8135827907  -0.000000196960 0.00010693  0.00000338  0.0000383 0.0000
  7    -39.8135828077  -0.000000017020 0.00004868  0.00000118  0.0000097 0.0000
                 **** Energy Check signals convergence ****

               *****************************************************
               *                     SUCCESS                       *
               *           SCF CONVERGED AFTER   8 CYCLES          *
               *****************************************************

Old exchange energy                            =     -2.169540231 Eh
New exchange energy                            =     -2.169543449 Eh
Exchange energy change after final integration =     -0.000003218 Eh
Total energy after final integration           =    -39.813586027 Eh
Final COS-X integration done in                =     0.127 sec
Total Energy       :          -39.81358603 Eh           -1083.38275 eV
  Last Energy change         ...   -1.0270e-09  Tolerance :   1.0000e-08
  Last MAX-Density change    ...    0.0000e+00  Tolerance :   1.0000e-07
             **** THE GBW FILE WAS UPDATED (/beegfs/scratch/ispackman/PFAS_EPR_calcs/benchmark/JChemEd_CF3_radical/CH3_radical_102.0_degrees_IN-PROGRESS/CH3_radical_102.0_degrees.gbw) ****
             **** DENSITY /beegfs/scratch/ispackman/PFAS_EPR_calcs/benchmark/JChemEd_CF3_radical/CH3_radical_102.0_degrees_IN-PROGRESS/CH3_radical_102.0_degrees.scfp WAS UPDATED ****
             **** ENERGY FILE WAS UPDATED (/beegfs/scratch/ispackman/PFAS_EPR_calcs/benchmark/JChemEd_CF3_radical/CH3_radical_102.0_degrees_IN-PROGRESS/CH3_radical_102.0_degrees.en.tmp) ****
----------------------
UHF SPIN CONTAMINATION
----------------------

Warning: in a DFT calculation there is little theoretical justification to 
         calculate <S**2> as in Hartree-Fock theory. We will do it anyways
         but you should keep in mind that the values have only limited relevance

Expectation value of <S**2>     :     0.753068
Ideal value S*(S+1) for S=0.5   :     0.750000
Deviation                       :     0.003068

             **** THE GBW FILE WAS UPDATED (/beegfs/scratch/ispackman/PFAS_EPR_calcs/benchmark/JChemEd_CF3_radical/CH3_radical_102.0_degrees_IN-PROGRESS/CH3_radical_102.0_degrees.gbw) ****
             **** DENSITY /beegfs/scratch/ispackman/PFAS_EPR_calcs/benchmark/JChemEd_CF3_radical/CH3_radical_102.0_degrees_IN-PROGRESS/CH3_radical_102.0_degrees.scfp WAS UPDATED ****
Total SCF time: 0 days 0 hours 0 min 11 sec 

Maximum memory used throughout the entire SCF-calculation: 58.5 MB


-------------------------------------------------------------------------------
                          DFT DISPERSION CORRECTION                            
                                                                               
                              DFTD3 V3.1  Rev 1                                
                              USING zero damping                               
-------------------------------------------------------------------------------
-------------------------   ----------------
Dispersion correction           -0.000008779
-------------------------   ----------------


-------------------------   --------------------
FINAL SINGLE POINT ENERGY       -39.813594805923
-------------------------   --------------------



           ************************************************************
           *        Program running with 18 parallel MPI-processes    *
           *              working on a common directory               *
           ************************************************************
------------------------------------------------------------------------------
                         ORCA SCF GRADIENT CALCULATION
------------------------------------------------------------------------------

 ... reading COSX grid (gridx3)
Gradient of the Kohn-Sham DFT energy:
Kohn-Sham wavefunction type      ... UKS
Hartree-Fock exchange scaling    ...    0.196
Number of operators              ...    2
Number of atoms                  ...    4
Basis set dimensions             ...   64
Integral neglect threshold       ... 2.5e-11
Integral primitive cutoff        ... 2.5e-12
SHARK Integral package           ... ON

Nuc. rep. gradient       (SHARK) ... done (  0.0 sec)
HCore & Overlap gradient (SHARK) ... done (  0.0 sec)
RI-J gradient            (SHARK) ... done (  0.1 sec)
COSX-gradient                    ... done (  0.1 sec)
Exchange-correlation gradient    ... done
Dispersion correction            ... done

------------------
CARTESIAN GRADIENT
------------------

WARNING: THERE ARE 3 CONSTRAINED CARTESIAN COORDINATES
   1   C   :   -0.000031076   -0.000000025    0.070568942
   2   H   :   -0.012110606   -0.000000033   -0.023558401
   3   H   :    0.006024282   -0.010468175   -0.023515380
   4   H   :    0.006024279    0.010468181   -0.023515396

Difference to translation invariance:
           :   -0.0000931208   -0.0000000523   -0.0000202352

Difference to rotation invariance:
           :    0.0000000010    0.0001334382   -0.0000000710

Norm of the cartesian gradient     ...    0.0841388017
RMS gradient                       ...    0.0242887799
MAX gradient                       ...    0.0705689420

-------
TIMINGS
-------

Total SCF gradient time            ...        0.761 sec

One electron gradient       ....       0.006 sec  (  0.8%)
RI-J Coulomb gradient       ....       0.124 sec  ( 16.2%)
COSX gradient               ....       0.131 sec  ( 17.2%)
XC gradient                 ....       0.081 sec  ( 10.6%)

Maximum memory used throughout the entire SCFGRAD-calculation: 33.6 MB
------------------------------------------------------------------------------
                         ORCA GEOMETRY RELAXATION STEP
------------------------------------------------------------------------------

Reading the OPT-File                    .... done
Getting information on internals        .... done
Copying old internal coords+grads       .... done
Making the new internal coordinates     .... (new redundants).... done
Validating the new internal coordinates .... (new redundants).... done
Calculating the B-matrix                .... done
Calculating the G,G- and P matrices     .... done
Transforming gradient to internals      .... done
Projecting the internal gradient        .... done
Number of atoms                         ....   4
Number of internal coordinates          ....   7
Current Energy                          ....   -39.813594806 Eh
Current gradient norm                   ....     0.084138802 Eh/bohr
Maximum allowed component of the step   ....  0.300
Current trust radius                    ....  0.300
Updating the Hessian (BFGS)             .... done
Forming the augmented Hessian           .... done
Diagonalizing the augmented Hessian     .... done
Last element of RFO vector              ....  0.999997446
Lowest eigenvalues of augmented Hessian:
 -0.000001829  0.358040087  0.373574723  0.373576152 999.999999985
Length of the computed step             ....  0.002260282
The final length of the internal step   ....  0.002260282
Converting the step to cartesian space:
 Initial RMS(Int)=    0.0008543063
Transforming coordinates:
 Iter   0:  RMS(Cart)=    0.0006029526 RMS(Int)=    0.0008543063
 Iter   1:  RMS(Cart)=    0.0000000000 RMS(Int)=    0.0000000000
Imposing constraints:
 Iter   0:  RMS(Cart)=    0.0000000003 RMS(Int)=    0.0000000009
CONVERGED
done
Storing new coordinates                 .... done

                                .--------------------.
          ----------------------|Geometry convergence|-------------------------
          Item                value                   Tolerance       Converged
          ---------------------------------------------------------------------
          Energy change      -0.0004677691            0.0000050000      NO
          RMS gradient        0.0003058759            0.0001000000      NO
          MAX gradient        0.0004705608            0.0003000000      NO
          RMS step            0.0008543063            0.0020000000      YES
          MAX step            0.0013142882            0.0040000000      YES
          ........................................................
          Max(Bonds)      0.0007      Max(Angles)    0.00
          Max(Dihed)        0.00      Max(Improp)    0.00
          ---------------------------------------------------------------------

The optimization has not yet converged - more geometry cycles are needed


    ---------------------------------------------------------------------------
                         Redundant Internal Coordinates
                            (Angstroem and degrees)

        Definition                    Value    dE/dq     Step     New-Value
    ----------------------------------------------------------------------------
     1. B(H   1,C   0)                1.0950 -0.000461  0.0007    1.0957   
     2. B(H   2,C   0)                1.0951 -0.000471  0.0007    1.0957   
     3. B(H   3,C   0)                1.0951 -0.000471  0.0007    1.0957   
     4. A(H   2,C   0,H   3)          102.00 -0.037496    0.00    102.00 C 
     5. A(H   1,C   0,H   2)          102.00 -0.016295    0.00    102.00 C 
     6. A(H   1,C   0,H   3)          102.00 -0.016295    0.00    102.00 C 
     7. I(H   1,H   3,H   2,C   0)     70.71  0.034938   -0.00     70.71   
    ----------------------------------------------------------------------------

         *************************************************************
         *                GEOMETRY OPTIMIZATION CYCLE   3            *
         *************************************************************
---------------------------------
CARTESIAN COORDINATES (ANGSTROEM)
---------------------------------
  C      0.000016    0.000000    0.005205
  H      0.983252    0.000000   -0.478309
  H     -0.491634    0.851554   -0.478317
  H     -0.491634   -0.851554   -0.478317

----------------------------
CARTESIAN COORDINATES (A.U.)
----------------------------
  NO LB      ZA    FRAG     MASS         X           Y           Z
   0 C     6.0000    0    12.011    0.000030    0.000000    0.009836
   1 H     1.0000    0     1.008    1.858077    0.000000   -0.903873
   2 H     1.0000    0     1.008   -0.929054    1.609204   -0.903888
   3 H     1.0000    0     1.008   -0.929054   -1.609204   -0.903888

--------------------------------
INTERNAL COORDINATES (ANGSTROEM)
--------------------------------
 C      0   0   0     0.000000000000     0.00000000     0.00000000
 H      1   0   0     1.095691200261     0.00000000     0.00000000
 H      1   2   0     1.095745456142   102.00000011     0.00000000
 H      1   2   3     1.095745496226   102.00000011   105.21759402

---------------------------
INTERNAL COORDINATES (A.U.)
---------------------------
 C      0   0   0     0.000000000000     0.00000000     0.00000000
 H      1   0   0     2.070556295840     0.00000000     0.00000000
 H      1   2   0     2.070658824596   102.00000011     0.00000000
 H      1   2   3     2.070658900345   102.00000011   105.21759402



           ************************************************************
           *        Program running with 18 parallel MPI-processes    *
           *              working on a common directory               *
           ************************************************************
------------------------------------------------------------------------------
                   ___                                                        
                  /   \      - P O W E R E D   B Y -                         
                 /     \                                                     
                 |  |  |   _    _      __       _____    __    __             
                 |  |  |  | |  | |    /  \     |  _  \  |  |  /  |          
                  \  \/   | |  | |   /    \    | | | |  |  | /  /          
                 / \  \   | |__| |  /  /\  \   | |_| |  |  |/  /          
                |  |  |   |  __  | /  /__\  \  |    /   |      \           
                |  |  |   | |  | | |   __   |  |    \   |  |\   \          
                \     /   | |  | | |  |  |  |  | |\  \  |  | \   \       
[...]
  ZA   - Total nuclear charge
  QA   - Mulliken gross atomic charge
  VA   - Mayer's total valence
  BVA  - Mayer's bonded valence
  FA   - Mayer's free valence

  ATOM       NA         ZA         QA         VA         BVA        FA
  0 C      6.6727     6.0000    -0.6727     3.8247     3.0299     0.7948
  1 H      0.7761     1.0000     0.2239     1.0161     1.0149     0.0012
  2 H      0.7756     1.0000     0.2244     1.0154     1.0143     0.0012
  3 H      0.7756     1.0000     0.2244     1.0154     1.0143     0.0012

  Mayer bond orders larger than 0.100000
B(  0-C ,  1-H ) :   1.0103 B(  0-C ,  2-H ) :   1.0098 B(  0-C ,  3-H ) :   1.0098 


-------
TIMINGS
-------

Total SCF time: 0 days 0 hours 0 min 8 sec 

Total time                  ....       8.723 sec
Sum of individual times     ....       7.002 sec  ( 80.3%)

Fock matrix formation       ....       5.365 sec  ( 61.5%)
  Split-RI-J                ....       0.663 sec  ( 12.4% of F)
  Chain of spheres X        ....       0.829 sec  ( 15.5% of F)
  XC integration            ....       1.065 sec  ( 19.9% of F)
    Basis function eval.    ....       0.021 sec  (  2.0% of XC)
    Density eval.           ....       0.026 sec  (  2.4% of XC)
    XC-Functional eval.     ....       0.027 sec  (  2.5% of XC)
    XC-Potential eval.      ....       0.025 sec  (  2.3% of XC)
Diagonalization             ....       0.113 sec  (  1.3%)
Density matrix formation    ....       0.022 sec  (  0.3%)
Population analysis         ....       0.451 sec  (  5.2%)
Initial guess               ....       0.009 sec  (  0.1%)
Orbital Transformation      ....       0.000 sec  (  0.0%)
Orbital Orthonormalization  ....       0.002 sec  (  0.0%)
DIIS solution               ....       0.233 sec  (  2.7%)
Grid generation             ....       0.809 sec  (  9.3%)

Maximum memory used throughout the entire SCF-calculation: 58.5 MB


-------------------------------------------------------------------------------
                          DFT DISPERSION CORRECTION                            
                                                                               
                              DFTD3 V3.1  Rev 1                                
                              USING zero damping                               
-------------------------------------------------------------------------------
The omegaB97X-D3 functional is recognized. Fit by Chai et al.
Active option DFTDOPT                   ...         3   

molecular C6(AA) [au] = 106.998482 


            DFT-D V3
 parameters
 s6 scaling factor         :     1.0000 
 rs6 scaling factor        :     1.2810 
 s8 scaling factor         :     1.0000 
 rs8 scaling factor        :     1.0940 
 Damping factor alpha6     :    14.0000 
 Damping factor alpha8     :    16.0000 
 ad hoc parameters k1-k3   :    16.0000     1.3333    -4.0000 

 Edisp/kcal,au: -0.005538048443  -0.000008825441 
 E6   /kcal   :  -0.000861727 
 E8   /kcal   :  -0.004676322 
 % E8         :  84.439884647 

-------------------------   ----------------
Dispersion correction           -0.000008825
-------------------------   ----------------


-------------------------   --------------------
FINAL SINGLE POINT ENERGY       -39.813595774240
-------------------------   --------------------

                                *** OPTIMIZATION RUN DONE ***

                            ***************************************
                            *     ORCA property calculations      *
                            ***************************************

                                    ---------------------
                                    Active property flags
                                    ---------------------
   (+) Dipole Moment


------------------------------------------------------------------------------
                       ORCA ELECTRIC PROPERTIES CALCULATION
------------------------------------------------------------------------------

Dipole Moment Calculation                       ... on
Quadrupole Moment Calculation                   ... off
Polarizability Calculation                      ... off
GBWName                                         ... /beegfs/scratch/ispackman/PFAS_EPR_calcs/benchmark/JChemEd_CF3_radical/CH3_radical_102.0_degrees_IN-PROGRESS/CH3_radical_102.0_degrees.gbw
Electron density                                ... /beegfs/scratch/ispackman/PFAS_EPR_calcs/benchmark/JChemEd_CF3_radical/CH3_radical_102.0_degrees_IN-PROGRESS/CH3_radical_102.0_degrees.scfp
The origin for moment calculation is the CENTER OF MASS  = ( 0.000023,  0.000000 -0.173927)

-------------
DIPOLE MOMENT
-------------
                                X             Y             Z
Electronic contribution:     -0.00000      -0.00000       0.79419
Nuclear contribution   :     -0.00005      -0.00000      -1.08720
                        -----------------------------------------
Total Dipole Moment    :     -0.00005      -0.00000      -0.29301
                        -----------------------------------------
Magnitude (a.u.)       :      0.29301
Magnitude (Debye)      :      0.74476



--------------------
Rotational spectrum 
--------------------
 
Rotational constants in cm-1:     8.317801     8.317394     5.765565 
Rotational constants in MHz : 249361.392461 249349.210936 172847.282326 

 Dipole components along the rotational axes: 
x,y,z [a.u.] :     0.000000    -0.000062    -0.293006 
x,y,z [Debye]:     0.000000    -0.000158    -0.744762 

 


           ************************************************************
           *        Program running with 18 parallel MPI-processes    *
           *              working on a common directory               *
           ************************************************************

-------------------------------------------------------------------------------
                               ORCA SCF HESSIAN
-------------------------------------------------------------------------------

                   --------- SHARK INITIALIZATION DONE ---------

Hessian of the Kohn-Sham DFT energy:
Kohn-Sham wavefunction type                      ... UKS
Hartree-Fock exchange scaling                    ...    0.196
Number of operators                              ...    2
Number of atoms                                  ...    4
Basis set dimensions                             ...   64
Integral neglect threshold                       ... 2.5e-11
Integral primitive cutoff                        ... 2.5e-12

Setting up DFT Hessian calculations              ... 

HESS GRID
---------

General Integration Accuracy     IntAcc      ... 4.629
Radial Grid Type                 RadialGrid  ... OptM3 with GC (2021)
Angular Grid (max. ang.)         AngularGrid ... 5 (Lebedev-434)
Angular grid pruning method      GridPruning ... 4 (adaptive)
Weight generation scheme         WeightScheme... Becke
Basis function cutoff            BFCut       ... 1.0000e-11
Integration weight cutoff        WCut        ... 1.0000e-14
Angular grids for H and He will be reduced by one unit
Partially contracted basis set               ... off
Rotationally invariant grid construction     ... off

Total number of grid points                  ...    27252
Total number of batches                      ...      428
Average number of points per batch           ...       63
Average number of grid points per atom       ...     6813

Building densities                               ... done   (      0.0 sec)
Calculating rho(r) on the grid                   ... done   (      0.1 sec)
Building xc-kernel on the grid                   ... done   (      0.1 sec)
                                                     done   (      0.5 sec)

Nuclear repulsion Hessian  (SHARK)               ... done   (      0.0 sec)

----------------------------------------------
Forming right-hand sides of CP-SCF equations     ...
----------------------------------------------
One electron integral derivatives  (SHARK)       ... done   (      0.0 sec)
Transforming the overlap derivative matrices     ... done   (      0.0 sec)
Making the Q(x) pseudodensities                  ... done   (      0.0 sec)
Adding the E*S(x)*S(y) terms to the Hessian      ... done   (      0.0 sec)
Calculating energy weighted overlap derivatives  ... done   (      0.2 sec)
Two electron integral derivatives (SHARK-RI)     ... done   (      0.8 sec)
Exchange-correlation integral derivatives        ... done   (      0.4 sec)
tr(F(y)Q(x)) contribution to the Hessian         ... done   (      0.0 sec)
Response fock operator R(S(x)) (SHARK-RIJCOSX)   ... done   (      0.8 sec)
XC Response fock operator R(S(x))                ... done   (      0.1 sec)
tr(F(y)S(x)) contribution to the Hessian         ... done   (      0.0 sec)
Transforming and finalizing RHSs                 ... done   (      0.0 sec)

----------------------------------------------
Solving the CP-SCF equations (RIJCOSX)           ...
----------------------------------------------
     CP-SCF ITERATION   0:   1.1782e-01 (   0.5 sec   0/ 12 done)
     CP-SCF ITERATION   1:   2.9284e-02 (   0.4 sec   0/ 12 done)
     CP-SCF ITERATION   2:   9.7933e-03 (   0.4 sec   0/ 12 done)
     CP-SCF ITERATION   3:   3.3378e-03 (   0.4 sec   0/ 12 done)
     CP-SCF ITERATION   4:   5.5480e-04 (   0.4 sec   1/ 12 done)
     CP-SCF ITERATION   5:   1.2319e-04 (   0.4 sec  11/ 12 done)
     CP-SCF ITERATION   6:   2.6628e-05 (   0.3 sec  12/ 12 done)
                    *** THE CP-SCF HAS CONVERGED ***

                                                 ... done   (      3.3 sec)
Forming perturbed density Hessian contributions  ... done   (      0.0 sec)
2nd integral derivative contribs (SHARK-RI)      ... done   (      1.0 sec)
Exchange-correlation Hessian                     ... done   (      0.3 sec)
Dispersion correction in the Hessian             ... done   (      0.1 sec)
Dipole derivatives                               ... (center of mass:  0.000023,  0.000000 -0.173927)done   (      0.2 sec)

Total SCF Hessian time: 0 days 0 hours 0 min 8 sec 

Writing the Hessian file to the disk             ... done


Maximum memory used throughout the entire SCFHESS-calculation: 109.1 MB

-----------------------
VIBRATIONAL FREQUENCIES
-----------------------

Scaling factor for frequencies =  1.000000000  (already applied!)

   0:         0.00 cm**-1
   1:         0.00 cm**-1
   2:         0.00 cm**-1
   3:         0.00 cm**-1
   4:         0.00 cm**-1
   5:         0.00 cm**-1
   6:      1288.62 cm**-1
   7:      1399.66 cm**-1
   8:      1402.20 cm**-1
   9:      3053.66 cm**-1
  10:      3109.34 cm**-1
  11:      3109.41 cm**-1


------------
NORMAL MODES
------------

These modes are the Cartesian displacements weighted by the diagonal matrix
M(i,i)=1/sqrt(m[i]) where m[i] is the mass of the displaced atom
Thus, these vectors are normalized but *not* orthogonal

                  0          1          2          3          4          5    
      0       0.000000   0.000000   0.000000   0.000000   0.000000   0.000000
      1       0.000000   0.000000   0.000000   0.000000   0.000000   0.000000
      2       0.000000   0.000000   0.000000   0.000000   0.000000   0.000000
      3       0.000000   0.000000   0.000000   0.000000   0.000000   0.000000
      4       0.000000   0.000000   0.000000   0.000000   0.000000   0.000000
      5       0.000000   0.000000   0.000000   0.000000   0.000000   0.000000
      6       0.000000   0.000000   0.000000   0.000000   0.000000   0.000000
      7       0.000000   0.000000   0.000000   0.000000   0.000000   0.000000
      8       0.000000   0.000000   0.000000   0.000000   0.000000   0.000000
      9       0.000000   0.000000   0.000000   0.000000   0.000000   0.000000
     10       0.000000   0.000000   0.000000   0.000000   0.000000   0.000000
     11       0.000000   0.000000   0.000000   0.000000   0.000000   0.000000
                  6          7          8          9         10         11    
      0      -0.000193  -0.000001   0.073566   0.000082  -0.087496  -0.000038
      1       0.000000   0.073575   0.000001  -0.000000  -0.000038   0.087491
      2      -0.130207   0.000000  -0.000307  -0.051453  -0.000054  -0.000000
      3       0.244947  -0.000002   0.160999  -0.539832   0.736359   0.000321
      4      -0.000001  -0.744828  -0.000009   0.000000  -0.000018   0.041882
      5       0.516439  -0.000004   0.288599   0.204691  -0.341577  -0.000149
      6      -0.121322  -0.391929  -0.518800   0.269428   0.152962   0.337287
      7       0.213559  -0.065929  -0.391462  -0.466612  -0.337403  -0.542344
      8       0.517536   0.248895  -0.142469   0.204202   0.170982   0.296050
      9      -0.121320   0.391942  -0.518791   0.269428   0.153257  -0.337153
     10      -0.213559  -0.065937   0.391460   0.466613   0.337877  -0.542049
     11       0.517535  -0.248894  -0.142474   0.204202   0.171240  -0.295900


-----------
IR SPECTRUM
-----------

 Mode   freq       eps      Int      T**2         TX        TY        TZ
       cm**-1   L/(mol*cm) km/mol    a.u.
----------------------------------------------------------------------------
  6:   1288.62   0.001872    9.46  0.000453  ( 0.000100 -0.000000  0.021294)
  7:   1399.66   0.000850    4.30  0.000189  ( 0.000000 -0.013766 -0.000000)
  8:   1402.20   0.000854    4.31  0.000190  (-0.013784 -0.000000 -0.000036)
  9:   3053.66   0.000016    0.08  0.000002  ( 0.000058 -0.000000 -0.001294)
 10:   3109.34   0.006557   33.13  0.000658  (-0.025653 -0.000011 -0.000047)
 11:   3109.41   0.006715   33.94  0.000674  (-0.000011  0.025961 -0.000000)

* The epsilon (eps) is given for a Dirac delta lineshape.
** The dipole moment derivative (T) already includes vibrational overlap.

The first frequency considered to be a vibration is 6
The total number of vibrations considered is 6


--------------------------
THERMOCHEMISTRY AT 298.15K
--------------------------

Temperature         ... 298.15 K
Pressure            ... 1.00 atm
Total Mass          ... 15.03 AMU

Throughout the following assumptions are being made:
  (1) The electronic state is orbitally nondegenerate
      but the spin degeneracy is treated
  (2) There are no thermally accessible electronically excited states
  (3) Hindered rotations indicated by low frequency modes are not
      treated as such but are treated as vibrations and this may
      cause some error
  (4) All equations used are the standard statistical mechanics
      equations for an ideal gas
  (5) All vibrations are strictly harmonic

freq.    1288.62  E(vib)   ...       0.01 
freq.    1399.66  E(vib)   ...       0.00 
freq.    1402.20  E(vib)   ...       0.00 
freq.    3053.66  E(vib)   ...       0.00 
freq.    3109.34  E(vib)   ...       0.00 
freq.    3109.41  E(vib)   ...       0.00 

------------
INNER ENERGY
------------

The inner energy is: U= E(el) + E(ZPE) + E(vib) + E(rot) + E(trans)
    E(el)   - is the total energy from the electronic structure calculation
              = E(kin-el) + E(nuc-el) + E(el-el) + E(nuc-nuc)
    E(ZPE)  - the the zero temperature vibrational energy from the frequency calculation
    E(vib)  - the the finite temperature correction to E(ZPE) due to population
              of excited vibrational states
    E(rot)  - is the rotational thermal energy
    E(trans)- is the translational thermal energy

Summary of contributions to the inner energy U:
Electronic energy                ...    -39.81359577 Eh
Zero point energy                ...      0.03044289 Eh      19.10 kcal/mol
Thermal vibrational correction   ...      0.00002655 Eh       0.02 kcal/mol
Thermal rotational correction    ...      0.00141627 Eh       0.89 kcal/mol
Thermal translational correction ...      0.00141627 Eh       0.89 kcal/mol
-----------------------------------------------------------------------
Total thermal energy                    -39.78029379 Eh


Summary of corrections to the electronic energy:
(perhaps to be used in another calculation)
Total thermal correction                  0.00285909 Eh       1.79 kcal/mol
Non-thermal (ZPE) correction              0.03044289 Eh      19.10 kcal/mol
-----------------------------------------------------------------------
Total correction                          0.03330198 Eh      20.90 kcal/mol


--------
ENTHALPY
--------

The enthalpy is H = U + kB*T
                kB is Boltzmann's constant
Total free energy                 ...    -39.78029379 Eh 
Thermal Enthalpy correction       ...      0.00094421 Eh       0.59 kcal/mol
-----------------------------------------------------------------------
Total Enthalpy                    ...    -39.77934958 Eh


Note: Rotational entropy computed according to Herzberg 
Infrared and Raman Spectra, Chapter V,1, Van Nostrand Reinhold, 1945 
Point Group:  C3v, Symmetry Number:   3  
Rotational constants in cm-1:     8.317801     8.317394     5.765565 

Vibrational entropy computed according to the QRRHO of S. Grimme
Chem.Eur.J. 2012 18 9955


-------
ENTROPY
-------

The entropy contributions are T*S = T*(S(el)+S(vib)+S(rot)+S(trans))
     S(el)   - electronic entropy
     S(vib)  - vibrational entropy
     S(rot)  - rotational entropy
     S(trans)- translational entropy
The entropies will be listed as multiplied by the temperature to get
units of energy

Electronic entropy                ...      0.00065446 Eh      0.41 kcal/mol
Vibrational entropy               ...      0.00003063 Eh      0.02 kcal/mol
Rotational entropy                ...      0.00564634 Eh      3.54 kcal/mol
Translational entropy             ...      0.01618771 Eh     10.16 kcal/mol
-----------------------------------------------------------------------
Final entropy term                ...      0.02251913 Eh     14.13 kcal/mol

In case the symmetry of your molecule has not been determined correctly
or in case you have a reason to use a different symmetry number we print 
out the resulting rotational entropy values for sn=1,12 :
 --------------------------------------------------------
|  sn= 1 | S(rot)=       0.00668363 Eh      4.19 kcal/mol|
|  sn= 2 | S(rot)=       0.00602917 Eh      3.78 kcal/mol|
|  sn= 3 | S(rot)=       0.00564634 Eh      3.54 kcal/mol|
|  sn= 4 | S(rot)=       0.00537471 Eh      3.37 kcal/mol|
|  sn= 5 | S(rot)=       0.00516402 Eh      3.24 kcal/mol|
|  sn= 6 | S(rot)=       0.00499188 Eh      3.13 kcal/mol|
|  sn= 7 | S(rot)=       0.00484633 Eh      3.04 kcal/mol|
|  sn= 8 | S(rot)=       0.00472026 Eh      2.96 kcal/mol|
|  sn= 9 | S(rot)=       0.00460905 Eh      2.89 kcal/mol|
|  sn=10 | S(rot)=       0.00450957 Eh      2.83 kcal/mol|
|  sn=11 | S(rot)=       0.00441958 Eh      2.77 kcal/mol|
|  sn=12 | S(rot)=       0.00433742 Eh      2.72 kcal/mol|
 --------------------------------------------------------


-------------------
GIBBS FREE ENERGY
-------------------

The Gibbs free energy is G = H - T*S

Total enthalpy                    ...    -39.77934958 Eh 
Total entropy correction          ...     -0.02251913 Eh    -14.13 kcal/mol
-----------------------------------------------------------------------
Final Gibbs free energy         ...    -39.80186871 Eh

For completeness - the Gibbs free energy minus the electronic energy
G-E(el)                           ...      0.01172706 Eh      7.36 kcal/mol


Timings for individual modules:

Sum of individual times         ...       91.159 sec (=   1.519 min)
GTO integral calculation        ...       12.273 sec (=   0.205 min)  13.5 %
SCF iterations                  ...       58.042 sec (=   0.967 min)  63.7 %
SCF Gradient evaluation         ...        9.644 sec (=   0.161 min)  10.6 %
Geometry relaxation             ...        0.201 sec (=   0.003 min)   0.2 %
Analytical frequency calculation...       10.998 sec (=   0.183 min)  12.1 %
                             ****ORCA TERMINATED NORMALLY****
TOTAL RUN TIME: 0 days 0 hours 1 minutes 44 seconds 53 msec

slurmID:    32260095
totalRuntime[s]:    104.090421635
